# vtk DataFile Version 2.0
test
ASCII
DATASET STRUCTURED_POINTS
DIMENSIONS 21 21 21
ORIGIN 0.0 0.0 0.0
SPACING 1.0 1.0 1.0

POINT_DATA 9261
VECTORS velocity float"
3.749399456654644e-33 -3.749399456654644e-33 0.0
-1.8048549043721685e-17 -3.58282415880851e-33 0.0
-3.44934053001558e-17 -3.09789921148739e-33 0.0
-4.7873371123855125e-17 -2.3377123243188476e-33 0.0
-5.699957783437112e-17 -1.3698094382530134e-33 0.0
-6.106112191577593e-17 -2.8019297228869137e-34 0.0
-5.969711735264411e-17 8.343198688700888e-34 0.0
-5.302876193624537e-17 1.87469972832732e-33 0.0
-4.164856830892245e-17 2.7485042899384193e-33 0.0
-2.656771661562015e-17 3.37809218377608e-33 0.0
-9.12620671051604e-18 3.70752176257186e-33 0.0
9.126206710516017e-18 3.70752176257186e-33 0.0
2.656771661562013e-17 3.3780921837760805e-33 0.0
4.164856830892243e-17 2.7485042899384203e-33 0.0
5.302876193624533e-17 1.8746997283273237e-33 0.0
5.96971173526441e-17 8.3431986887009e-34 0.0
6.106112191577594e-17 -2.8019297228868667e-34 0.0
5.699957783437114e-17 -1.3698094382530109e-33 0.0
4.7873371123855144e-17 -2.3377123243188466e-33 0.0
3.4493405300155834e-17 -3.097899211487388e-33 0.0
1.8048549043721722e-17 -3.582824158808509e-33 0.0
3.58282415880851e-33 1.8048549043721685e-17 0.0
-1.72467026500779e-17 1.72467026500779e-17 0.0
-3.2960960083788414e-17 1.4912411040066726e-17 0.0
-4.574649156726346e-17 1.1253086267107667e-17 0.0
-5.4467246519815535e-17 6.5938753959604036e-18 0.0
-5.834834759350762e-17 1.348769759136497e-18 0.0
-5.704494192601064e-17 -4.016179989765292e-18 0.0
-5.067284283078329e-17 -9.024274521860832e-18 0.0
-3.979823927593277e-17 -1.3230522660312596e-17 0.0
-2.538738750971922e-17 -1.6261180799203215e-17 0.0
-8.720754952552119e-18 -1.7846961663068063e-17 0.0
8.720754952552096e-18 -1.7846961663068063e-17 0.0
2.53873875097192e-17 -1.6261180799203218e-17 0.0
3.9798239275932743e-17 -1.3230522660312601e-17 0.0
5.067284283078325e-17 -9.02427452186085e-18 0.0
5.704494192601064e-17 -4.0161799897652986e-18 0.0
5.834834759350763e-17 1.3487697591364742e-18 0.0
5.446724651981555e-17 6.5938753959603905e-18 0.0
4.574649156726347e-17 1.1253086267107664e-17 0.0
3.296096008378846e-17 1.4912411040066717e-17 0.0
1.7246702650077933e-17 1.7246702650077896e-17 0.0
3.09789921148739e-33 3.44934053001558e-17 0.0
-1.4912411040066726e-17 3.2960960083788414e-17 0.0
-2.849978891718557e-17 2.849978891718557e-17 0.0
-3.9554835479748805e-17 2.150628643602713e-17 0.0
-4.7095261326399946e-17 1.2601856026244166e-17 0.0
-5.045106653005024e-17 2.5776954061951192e-18 0.0
-4.932407307164678e-17 -7.675504762724349e-18 0.0
-4.381441926569806e-17 -1.7246702650077877e-17 0.0
-3.441166203158007e-17 -2.5285455321064048e-17 0.0
-2.1951277612864686e-17 -3.107748432338067e-17 0.0
-7.540425846651181e-18 -3.410814246227128e-17 0.0
7.540425846651161e-18 -3.410814246227128e-17 0.0
2.1951277612864668e-17 -3.107748432338068e-17 0.0
3.4411662031580056e-17 -2.5285455321064055e-17 0.0
4.3814419265698024e-17 -1.7246702650077914e-17 0.0
4.932407307164677e-17 -7.675504762724361e-18 0.0
5.045106653005025e-17 2.5776954061950757e-18 0.0
4.7095261326399965e-17 1.2601856026244141e-17 0.0
3.955483547974881e-17 2.150628643602712e-17 0.0
2.84997889171856e-17 2.849978891718555e-17 0.0
1.4912411040066757e-17 3.296096008378841e-17 0.0
2.3377123243188476e-33 4.7873371123855125e-17 0.0
-1.1253086267107667e-17 4.574649156726346e-17 0.0
-2.150628643602713e-17 3.9554835479748805e-17 0.0
-2.984855867632205e-17 2.984855867632205e-17 0.0
-3.553865548998351e-17 1.749010644626184e-17 0.0
-3.8070986804539107e-17 3.577581504383334e-18 0.0
-3.722054386973764e-17 -1.065282725411749e-17 0.0
-3.306289227244358e-17 -2.3936685561927535e-17 0.0
-2.596745760262999e-17 -3.509366431314594e-17 0.0
-1.6564700368511992e-17 -4.3132416984132115e-17 0.0
-5.690096813661491e-18 -4.733866512258387e-17 0.0
5.690096813661476e-18 -4.733866512258388e-17 0.0
1.656470036851198e-17 -4.313241698413213e-17 0.0
2.5967457602629976e-17 -3.509366431314595e-17 0.0
3.3062892272443554e-17 -2.3936685561927584e-17 0.0
3.722054386973764e-17 -1.0652827254117507e-17 0.0
3.807098680453911e-17 3.577581504383273e-18 0.0
3.553865548998353e-17 1.7490106446261803e-17 0.0
2.984855867632206e-17 2.984855867632204e-17 0.0
2.1506286436027154e-17 3.955483547974878e-17 0.0
1.1253086267107692e-17 4.5746491567263445e-17 0.0
1.3698094382530134e-33 5.699957783437112e-17 0.0
-6.5938753959604036e-18 5.4467246519815535e-17 0.0
-1.2601856026244166e-17 4.7095261326399946e-17 0.0
-1.749010644626184e-17 3.553865548998351e-17 0.0
-2.0824284154461224e-17 2.0824284154461224e-17 0.0
-2.2308132829670925e-17 4.259583785949251e-18 0.0
-2.1809806005335907e-17 -1.2683599294819892e-17 0.0
-1.937358220666959e-17 -2.8499788917185525e-17 0.0
-1.5215930609375516e-17 -4.1783647224995614e-17 0.0
-9.706276803426766e-18 -5.1354845112349165e-17 0.0
-3.3341777081994008e-18 -5.63629396444447e-17 0.0
3.334177708199392e-18 -5.636293964444472e-17 0.0
9.706276803426758e-18 -5.135484511234918e-17 0.0
1.5215930609375507e-17 -4.1783647224995626e-17 0.0
1.937358220666958e-17 -2.8499788917185586e-17 0.0
2.1809806005335904e-17 -1.2683599294819912e-17 0.0
2.2308132829670928e-17 4.259583785949179e-18 0.0
2.082428415446123e-17 2.0824284154461183e-17 0.0
1.7490106446261846e-17 3.55386554899835e-17 0.0
1.2601856026244181e-17 4.7095261326399915e-17 0.0
6.5938753959604174e-18 5.446724651981552e-17 0.0
2.8019297228869137e-34 6.106112191577593e-17 0.0
-1.348769759136497e-18 5.834834759350762e-17 0.0
-2.5776954061951192e-18 5.045106653005024e-17 0.0
-3.577581504383334e-18 3.8070986804539107e-17 0.0
-4.259583785949251e-18 2.2308132829670925e-17 0.0
-4.563103355258022e-18 4.563103355258022e-18 0.0
-4.4611711666028696e-18 -1.358737787711883e-17 0.0
-3.962844342267851e-18 -3.053056095788793e-17 0.0
-3.1124014074663752e-18 -4.4760969716388755e-17 0.0
-1.9854079490629037e-18 -5.501416988530823e-17 0.0
-6.820022815659205e-19 -6.037911963421001e-17 0.0
6.820022815659188e-19 -6.037911963421002e-17 0.0
1.9854079490629018e-18 -5.501416988530824e-17 0.0
3.1124014074663737e-18 -4.4760969716388774e-17 0.0
3.9628443422678475e-18 -3.053056095788799e-17 0.0
4.4611711666028696e-18 -1.3587377877118854e-17 0.0
4.563103355258023e-18 4.563103355257944e-18 0.0
4.259583785949253e-18 2.2308132829670882e-17 0.0
3.577581504383335e-18 3.8070986804539094e-17 0.0
2.5776954061951227e-18 5.0451066530050205e-17 0.0
1.3487697591364996e-18 5.83483475935076e-17 0.0
-8.343198688700888e-34 5.969711735264411e-17 0.0
4.016179989765292e-18 5.704494192601064e-17 0.0
7.675504762724349e-18 4.932407307164678e-17 0.0
1.065282725411749e-17 3.722054386973764e-17 0.0
1.2683599294819892e-17 2.1809806005335907e-17 0.0
1.358737787711883e-17 4.4611711666028696e-18 0.0
1.3283858307810063e-17 -1.3283858307810063e-17 0.0
1.1800009632600369e-17 -2.9848558676322014e-17 0.0
9.267678318044776e-18 -4.376108361820055e-17 0.0
5.911873114394485e-18 -5.378524423824961e-17 0.0
2.0307720407024122e-18 -5.903034987507353e-17 0.0
-2.0307720407024064e-18 -5.903034987507353e-17 0.0
-5.91187311439448e-18 -5.3785244238249625e-17 0.0
-9.267678318044771e-18 -4.376108361820056e-17 0.0
-1.1800009632600358e-17 -2.984855867632208e-17 0.0
-1.3283858307810061e-17 -1.3283858307810084e-17 0.0
-1.3587377877118834e-17 4.461171166602795e-18 0.0
-1.2683599294819897e-17 2.1809806005335864e-17 0.0
-1.0652827254117492e-17 3.7220543869737627e-17 0.0
-7.675504762724358e-18 4.932407307164674e-17 0.0
-4.0161799897653e-18 5.704494192601063e-17 0.0
-1.87469972832732e-33 5.302876193624537e-17 0.0
9.024274521860832e-18 5.067284283078329e-17 0.0
1.7246702650077877e-17 4.381441926569806e-17 0.0
2.3936685561927535e-17 3.306289227244358e-17 0.0
2.8499788917185525e-17 1.937358220666959e-17 0.0
3.053056095788793e-17 3.962844342267851e-18 0.0
2.9848558676322014e-17 -1.1800009632600369e-17 0.0
2.651438096812265e-17 -2.651438096812265e-17 0.0
2.08242841544612e-17 -3.8872833198182896e-17 0.0
1.3283858307810058e-17 -4.777726360796588e-17 0.0
4.5631033552580145e-18 -5.243647447911315e-17 0.0
-4.563103355258002e-18 -5.2436474479113155e-17 0.0
-1.3283858307810047e-17 -4.777726360796589e-17 0.0
-2.082428415446119e-17 -3.887283319818291e-17 0.0
-2.651438096812263e-17 -2.6514380968122707e-17 0.0
-2.9848558676322014e-17 -1.1800009632600387e-17 0.0
-3.0530560957887935e-17 3.9628443422677836e-18 0.0
-2.8499788917185537e-17 1.9373582206669554e-17 0.0
-2.393668556192754e-17 3.306289227244357e-17 0.0
-1.72467026500779e-17 4.381441926569803e-17 0.0
-9.02427452186085e-18 5.067284283078328e-17 0.0
-2.7485042899384193e-33 4.164856830892245e-17 0.0
1.3230522660312596e-17 3.979823927593277e-17 0.0
2.5285455321064048e-17 3.441166203158007e-17 0.0
3.509366431314594e-17 2.596745760262999e-17 0.0
4.1783647224995614e-17 1.5215930609375516e-17 0.0
4.4760969716388755e-17 3.1124014074663752e-18 0.0
4.376108361820055e-17 -9.267678318044776e-18 0.0
3.8872833198182896e-17 -2.08242841544612e-17 0.0
3.053056095788797e-17 -3.053056095788797e-17 0.0
1.947551439532472e-17 -3.7524063439046426e-17 0.0
6.689982911849702e-18 -4.118338821200548e-17 0.0
-6.6899829118496846e-18 -4.118338821200548e-17 0.0
-1.9475514395324707e-17 -3.752406343904643e-17 0.0
-3.0530560957887954e-17 -3.053056095788798e-17 0.0
-3.8872833198182865e-17 -2.0824284154461242e-17 0.0
-4.3761083618200544e-17 -9.267678318044791e-18 0.0
-4.476096971638876e-17 3.1124014074663224e-18 0.0
-4.1783647224995626e-17 1.5215930609375485e-17 0.0
-3.509366431314595e-17 2.596745760262998e-17 0.0
-2.528545532106408e-17 3.441166203158005e-17 0.0
-1.3230522660312622e-17 3.979823927593276e-17 0.0
-3.37809218377608e-33 2.656771661562015e-17 0.0
1.6261180799203215e-17 2.538738750971922e-17 0.0
3.107748432338067e-17 2.1951277612864686e-17 0.0
4.3132416984132115e-17 1.6564700368511992e-17 0.0
5.1354845112349165e-17 9.706276803426766e-18 0.0
5.501416988530823e-17 1.9854079490629037e-18 0.0
5.378524423824961e-17 -5.911873114394485e-18 0.0
4.777726360796588e-17 -1.3283858307810058e-17 0.0
3.7524063439046426e-17 -1.947551439532472e-17 0.0
2.3936685561927575e-17 -2.3936685561927575e-17 0.0
8.222428128217096e-18 -2.6270977171938744e-17 0.0
-8.222428128217075e-18 -2.6270977171938747e-17 0.0
-2.3936685561927556e-17 -2.393668556192758e-17 0.0
-3.752406343904641e-17 -1.9475514395324728e-17 0.0
-4.7777263607965843e-17 -1.3283858307810087e-17 0.0
-5.3785244238249607e-17 -5.911873114394494e-18 0.0
-5.5014169885308234e-17 1.9854079490628702e-18 0.0
-5.1354845112349183e-17 9.706276803426746e-18 0.0
-4.313241698413213e-17 1.6564700368511986e-17 0.0
-3.10774843233807e-17 2.195127761286467e-17 0.0
-1.626118079920325e-17 2.5387387509719213e-17 0.0
-3.70752176257186e-33 9.12620671051604e-18 0.0
1.7846961663068063e-17 8.720754952552119e-18 0.0
3.410814246227128e-17 7.540425846651181e-18 0.0
4.733866512258387e-17 5.690096813661491e-18 0.0
5.63629396444447e-17 3.3341777081994008e-18 0.0
6.037911963421001e-17 6.820022815659205e-19 0.0
5.903034987507353e-17 -2.0307720407024122e-18 0.0
5.243647447911315e-17 -4.5631033552580145e-18 0.0
4.118338821200548e-17 -6.689982911849702e-18 0.0
2.6270977171938744e-17 -8.222428128217096e-18 0.0
9.024274521860887e-18 -9.024274521860887e-18 0.0
-9.024274521860864e-18 -9.024274521860889e-18 0.0
-2.6270977171938726e-17 -8.2224281282171e-18 0.0
-4.1183388212005464e-17 -6.689982911849705e-18 0.0
-5.2436474479113106e-17 -4.5631033552580245e-18 0.0
-5.903034987507352e-17 -2.0307720407024157e-18 0.0
-6.037911963421002e-17 6.82002281565909e-19 0.0
-5.636293964444473e-17 3.3341777081993943e-18 0.0
-4.7338665122583884e-17 5.6900968136614894e-18 0.0
-3.410814246227132e-17 7.540425846651176e-18 0.0
-1.7846961663068103e-17 8.720754952552118e-18 0.0
-3.70752176257186e-33 -9.126206710516017e-18 0.0
1.7846961663068063e-17 -8.720754952552096e-18 0.0
3.410814246227128e-17 -7.540425846651161e-18 0.0
4.733866512258388e-17 -5.690096813661476e-18 0.0
5.636293964444472e-17 -3.334177708199392e-18 0.0
6.037911963421002e-17 -6.820022815659188e-19 0.0
5.903034987507353e-17 2.0307720407024064e-18 0.0
5.2436474479113155e-17 4.563103355258002e-18 0.0
4.118338821200548e-17 6.6899829118496846e-18 0.0
2.6270977171938747e-17 8.222428128217075e-18 0.0
9.024274521860889e-18 9.024274521860864e-18 0.0
-9.024274521860866e-18 9.024274521860866e-18 0.0
-2.627097717193873e-17 8.222428128217076e-18 0.0
-4.1183388212005464e-17 6.689982911849688e-18 0.0
-5.243647447911311e-17 4.563103355258013e-18 0.0
-5.903034987507353e-17 2.03077204070241e-18 0.0
-6.037911963421002e-17 -6.820022815659073e-19 0.0
-5.636293964444473e-17 -3.3341777081993858e-18 0.0
-4.733866512258389e-17 -5.690096813661474e-18 0.0
-3.4108142462271325e-17 -7.540425846651156e-18 0.0
-1.7846961663068103e-17 -8.720754952552094e-18 0.0
-3.3780921837760805e-33 -2.656771661562013e-17 0.0
1.6261180799203218e-17 -2.53873875097192e-17 0.0
3.107748432338068e-17 -2.1951277612864668e-17 0.0
4.313241698413213e-17 -1.656470036851198e-17 0.0
5.135484511234918e-17 -9.706276803426758e-18 0.0
5.501416988530824e-17 -1.9854079490629018e-18 0.0
5.3785244238249625e-17 5.91187311439448e-18 0.0
4.777726360796589e-17 1.3283858307810047e-17 0.0
3.752406343904643e-17 1.9475514395324707e-17 0.0
2.393668556192758e-17 2.3936685561927556e-17 0.0
8.2224281282171e-18 2.6270977171938726e-17 0.0
-8.222428128217076e-18 2.627097717193873e-17 0.0
-2.393668556192756e-17 2.393668556192756e-17 0.0
-3.7524063439046413e-17 1.9475514395324713e-17 0.0
-4.7777263607965856e-17 1.3283858307810077e-17 0.0
-5.378524423824962e-17 5.9118731143944896e-18 0.0
-5.5014169885308247e-17 -1.9854079490628683e-18 0.0
-5.1354845112349196e-17 -9.706276803426738e-18 0.0
-4.3132416984132133e-17 -1.656470036851197e-17 0.0
-3.107748432338071e-17 -2.1951277612864655e-17 0.0
-1.6261180799203252e-17 -2.5387387509719195e-17 0.0
-2.7485042899384203e-33 -4.164856830892243e-17 0.0
1.3230522660312601e-17 -3.9798239275932743e-17 0.0
2.5285455321064055e-17 -3.4411662031580056e-17 0.0
3.509366431314595e-17 -2.5967457602629976e-17 0.0
4.1783647224995626e-17 -1.5215930609375507e-17 0.0
4.4760969716388774e-17 -3.1124014074663737e-18 0.0
4.376108361820056e-17 9.267678318044771e-18 0.0
3.887283319818291e-17 2.082428415446119e-17 0.0
3.053056095788798e-17 3.0530560957887954e-17 0.0
1.9475514395324728e-17 3.752406343904641e-17 0.0
6.689982911849705e-18 4.1183388212005464e-17 0.0
-6.689982911849688e-18 4.1183388212005464e-17 0.0
-1.9475514395324713e-17 3.7524063439046413e-17 0.0
-3.0530560957887966e-17 3.0530560957887966e-17 0.0
-3.887283319818288e-17 2.082428415446123e-17 0.0
-4.3761083618200556e-17 9.267678318044786e-18 0.0
-4.476096971638878e-17 -3.1124014074663213e-18 0.0
-4.178364722499564e-17 -1.5215930609375476e-17 0.0
-3.5093664313145965e-17 -2.5967457602629967e-17 0.0
-2.5285455321064085e-17 -3.441166203158003e-17 0.0
-1.3230522660312629e-17 -3.979823927593274e-17 0.0
-1.8746997283273237e-33 -5.302876193624533e-17 0.0
9.02427452186085e-18 -5.067284283078325e-17 0.0
1.7246702650077914e-17 -4.3814419265698024e-17 0.0
2.3936685561927584e-17 -3.3062892272443554e-17 0.0
2.8499788917185586e-17 -1.937358220666958e-17 0.0
3.053056095788799e-17 -3.9628443422678475e-18 0.0
2.984855867632208e-17 1.1800009632600358e-17 0.0
2.6514380968122707e-17 2.651438096812263e-17 0.0
2.0824284154461242e-17 3.8872833198182865e-17 0.0
1.3283858307810087e-17 4.7777263607965843e-17 0.0
4.5631033552580245e-18 5.2436474479113106e-17 0.0
-4.563103355258013e-18 5.243647447911311e-17 0.0
-1.3283858307810077e-17 4.7777263607965856e-17 0.0
-2.082428415446123e-17 3.887283319818288e-17 0.0
-2.6514380968122688e-17 2.6514380968122688e-17 0.0
-2.9848558676322075e-17 1.180000963260038e-17 0.0
-3.0530560957887997e-17 -3.9628443422677805e-18 0.0
-2.849978891718559e-17 -1.9373582206669542e-17 0.0
-2.393668556192759e-17 -3.306289227244354e-17 0.0
-1.7246702650077936e-17 -4.3814419265698e-17 0.0
-9.024274521860869e-18 -5.067284283078324e-17 0.0
-8.3431986887009e-34 -5.96971173526441e-17 0.0
4.0161799897652986e-18 -5.704494192601064e-17 0.0
7.675504762724361e-18 -4.932407307164677e-17 0.0
1.0652827254117507e-17 -3.722054386973764e-17 0.0
1.2683599294819912e-17 -2.1809806005335904e-17 0.0
1.3587377877118854e-17 -4.4611711666028696e-18 0.0
1.3283858307810084e-17 1.3283858307810061e-17 0.0
1.1800009632600387e-17 2.9848558676322014e-17 0.0
9.267678318044791e-18 4.3761083618200544e-17 0.0
5.911873114394494e-18 5.3785244238249607e-17 0.0
2.0307720407024157e-18 5.903034987507352e-17 0.0
-2.03077204070241e-18 5.903034987507353e-17 0.0
-5.9118731143944896e-18 5.378524423824962e-17 0.0
-9.267678318044786e-18 4.3761083618200556e-17 0.0
-1.180000963260038e-17 2.9848558676322075e-17 0.0
-1.3283858307810084e-17 1.3283858307810084e-17 0.0
-1.3587377877118855e-17 -4.461171166602794e-18 0.0
-1.2683599294819917e-17 -2.1809806005335864e-17 0.0
-1.065282725411751e-17 -3.7220543869737627e-17 0.0
-7.67550476272437e-18 -4.9324073071646736e-17 0.0
-4.016179989765307e-18 -5.704494192601063e-17 0.0
2.8019297228868667e-34 -6.106112191577594e-17 0.0
-1.3487697591364742e-18 -5.834834759350763e-17 0.0
-2.5776954061950757e-18 -5.045106653005025e-17 0.0
-3.577581504383273e-18 -3.807098680453911e-17 0.0
-4.259583785949179e-18 -2.2308132829670928e-17 0.0
-4.563103355257944e-18 -4.563103355258023e-18 0.0
-4.461171166602795e-18 1.3587377877118834e-17 0.0
-3.9628443422677836e-18 3.0530560957887935e-17 0.0
-3.1124014074663224e-18 4.476096971638876e-17 0.0
-1.9854079490628702e-18 5.5014169885308234e-17 0.0
-6.82002281565909e-19 6.037911963421002e-17 0.0
6.820022815659073e-19 6.037911963421002e-17 0.0
1.9854079490628683e-18 5.5014169885308247e-17 0.0
3.1124014074663213e-18 4.476096971638878e-17 0.0
3.9628443422677805e-18 3.0530560957887997e-17 0.0
4.461171166602794e-18 1.3587377877118855e-17 0.0
4.563103355257945e-18 -4.563103355257945e-18 0.0
4.259583785949181e-18 -2.2308132829670885e-17 0.0
3.577581504383275e-18 -3.80709868045391e-17 0.0
2.5776954061950788e-18 -5.0451066530050217e-17 0.0
1.3487697591364769e-18 -5.834834759350762e-17 0.0
1.3698094382530109e-33 -5.699957783437114e-17 0.0
-6.5938753959603905e-18 -5.446724651981555e-17 0.0
-1.2601856026244141e-17 -4.7095261326399965e-17 0.0
-1.7490106446261803e-17 -3.553865548998353e-17 0.0
-2.0824284154461183e-17 -2.082428415446123e-17 0.0
-2.2308132829670882e-17 -4.259583785949253e-18 0.0
-2.1809806005335864e-17 1.2683599294819897e-17 0.0
-1.9373582206669554e-17 2.8499788917185537e-17 0.0
-1.5215930609375485e-17 4.1783647224995626e-17 0.0
-9.706276803426746e-18 5.1354845112349183e-17 0.0
-3.3341777081993943e-18 5.636293964444473e-17 0.0
3.3341777081993858e-18 5.636293964444473e-17 0.0
9.706276803426738e-18 5.1354845112349196e-17 0.0
1.5215930609375476e-17 4.178364722499564e-17 0.0
1.9373582206669542e-17 2.849978891718559e-17 0.0
2.1809806005335864e-17 1.2683599294819917e-17 0.0
2.2308132829670885e-17 -4.259583785949181e-18 0.0
2.082428415446119e-17 -2.082428415446119e-17 0.0
1.7490106446261812e-17 -3.553865548998351e-17 0.0
1.2601856026244156e-17 -4.7095261326399934e-17 0.0
6.5938753959604036e-18 -5.446724651981554e-17 0.0
2.3377123243188466e-33 -4.7873371123855144e-17 0.0
-1.1253086267107664e-17 -4.574649156726347e-17 0.0
-2.150628643602712e-17 -3.955483547974881e-17 0.0
-2.984855867632204e-17 -2.984855867632206e-17 0.0
-3.55386554899835e-17 -1.7490106446261846e-17 0.0
-3.8070986804539094e-17 -3.577581504383335e-18 0.0
-3.7220543869737627e-17 1.0652827254117492e-17 0.0
-3.306289227244357e-17 2.393668556192754e-17 0.0
-2.596745760262998e-17 3.509366431314595e-17 0.0
-1.6564700368511986e-17 4.313241698413213e-17 0.0
-5.6900968136614894e-18 4.7338665122583884e-17 0.0
5.690096813661474e-18 4.733866512258389e-17 0.0
1.656470036851197e-17 4.3132416984132133e-17 0.0
2.5967457602629967e-17 3.5093664313145965e-17 0.0
3.306289227244354e-17 2.393668556192759e-17 0.0
3.7220543869737627e-17 1.065282725411751e-17 0.0
3.80709868045391e-17 -3.577581504383275e-18 0.0
3.553865548998351e-17 -1.7490106446261812e-17 0.0
2.984855867632205e-17 -2.984855867632205e-17 0.0
2.1506286436027145e-17 -3.955483547974879e-17 0.0
1.1253086267107688e-17 -4.574649156726346e-17 0.0
3.097899211487388e-33 -3.4493405300155834e-17 0.0
-1.4912411040066717e-17 -3.296096008378846e-17 0.0
-2.849978891718555e-17 -2.84997889171856e-17 0.0
-3.955483547974878e-17 -2.1506286436027154e-17 0.0
-4.7095261326399915e-17 -1.2601856026244181e-17 0.0
-5.0451066530050205e-17 -2.5776954061951227e-18 0.0
-4.932407307164674e-17 7.675504762724358e-18 0.0
-4.381441926569803e-17 1.72467026500779e-17 0.0
-3.441166203158005e-17 2.528545532106408e-17 0.0
-2.195127761286467e-17 3.10774843233807e-17 0.0
-7.540425846651176e-18 3.410814246227132e-17 0.0
7.540425846651156e-18 3.4108142462271325e-17 0.0
2.1951277612864655e-17 3.107748432338071e-17 0.0
3.441166203158003e-17 2.5285455321064085e-17 0.0
4.3814419265698e-17 1.7246702650077936e-17 0.0
4.9324073071646736e-17 7.67550476272437e-18 0.0
5.0451066530050217e-17 -2.5776954061950788e-18 0.0
4.7095261326399934e-17 -1.2601856026244156e-17 0.0
3.955483547974879e-17 -2.1506286436027145e-17 0.0
2.849978891718558e-17 -2.849978891718558e-17 0.0
1.4912411040066745e-17 -3.296096008378845e-17 0.0
3.582824158808509e-33 -1.8048549043721722e-17 0.0
-1.7246702650077896e-17 -1.7246702650077933e-17 0.0
-3.296096008378841e-17 -1.4912411040066757e-17 0.0
-4.5746491567263445e-17 -1.1253086267107692e-17 0.0
-5.446724651981552e-17 -6.5938753959604174e-18 0.0
-5.83483475935076e-17 -1.3487697591364996e-18 0.0
-5.704494192601063e-17 4.0161799897653e-18 0.0
-5.067284283078328e-17 9.02427452186085e-18 0.0
-3.979823927593276e-17 1.3230522660312622e-17 0.0
-2.5387387509719213e-17 1.626118079920325e-17 0.0
-8.720754952552118e-18 1.7846961663068103e-17 0.0
8.720754952552094e-18 1.7846961663068103e-17 0.0
2.5387387509719195e-17 1.6261180799203252e-17 0.0
3.979823927593274e-17 1.3230522660312629e-17 0.0
5.067284283078324e-17 9.024274521860869e-18 0.0
5.704494192601063e-17 4.016179989765307e-18 0.0
5.834834759350762e-17 -1.3487697591364769e-18 0.0
5.446724651981554e-17 -6.5938753959604036e-18 0.0
4.574649156726346e-17 -1.1253086267107688e-17 0.0
3.296096008378845e-17 -1.4912411040066745e-17 0.0
1.724670265007793e-17 -1.724670265007793e-17 0.0
-1.8048549043721685e-17 1.8048549043721685e-17 0.0
0.08688061284200256 1.7246702650077896e-17 0.0
0.1660415019637036 1.4912411040066726e-17 0.0
0.23044887497479988 1.1253086267107669e-17 0.0
0.2743798541361546 6.593875395960403e-18 0.0
0.2939309791613547 1.348769759136497e-18 0.0
0.2873650467932121 -4.0161799897652924e-18 0.0
0.25526546893675606 -9.02427452186083e-18 0.0
0.20048443395120968 -1.3230522660312595e-17 0.0
0.12788947719765115 -1.6261180799203212e-17 0.0
0.04393097916135494 -1.7846961663068063e-17 0.0
-0.04393097916135482 -1.7846961663068063e-17 0.0
-0.12788947719765106 -1.6261180799203215e-17 0.0
-0.20048443395120957 -1.3230522660312601e-17 0.0
-0.2552654689367559 -9.024274521860849e-18 0.0
-0.28736504679321206 -4.0161799897652986e-18 0.0
-0.29393097916135474 1.3487697591364742e-18 0.0
-0.2743798541361547 6.5938753959603905e-18 0.0
-0.23044887497479996 1.1253086267107663e-17 0.0
-0.1660415019637038 1.4912411040066717e-17 0.0
-0.08688061284200274 1.7246702650077893e-17 0.0
-1.7246702650077896e-17 -0.08688061284200256 0.0
0.0830207509818518 -0.0830207509818518 0.0
0.15866474390840127 -0.07178413106639868 0.0
0.2202106780499291 -0.05416917608622552 0.0
0.2621899270680773 -0.03174105209327741 0.0
0.2808724504646834 -0.00649259632852878 0.0
0.2745982240490553 0.01933275511229936 0.0
0.24392474037221096 0.04344030642100123 0.0
0.19157747306720366 0.0636879958695524 0.0
0.12220770655628219 0.07827672739492741 0.0
0.041979249018148417 0.0859102281795029 0.0
-0.041979249018148306 0.0859102281795029 0.0
-0.12220770655628209 0.07827672739492744 0.0
-0.19157747306720355 0.06368799586955241 0.0
-0.24392474037221076 0.04344030642100132 0.0
-0.2745982240490553 0.019332755112299396 0.0
-0.2808724504646834 -0.006492596328528671 0.0
-0.26218992706807737 -0.03174105209327735 0.0
-0.22021067804992916 -0.054169176086225505 0.0
-0.15866474390840146 -0.07178413106639864 0.0
-0.08302075098185197 -0.08302075098185178 0.0
-1.4912411040066726e-17 -0.1660415019637036 0.0
0.07178413106639868 -0.15866474390840127 0.0
0.13718992706807734 -0.13718992706807734 0.0
0.19040579600167862 -0.1035251831596761 0.0
0.22670327437845783 -0.06066177241475431 0.0
0.24285717195577794 -0.012408296980978086 0.0
0.2374321440436821 0.03694771009247252 0.0
0.210910228179503 0.0830207509818517 0.0
0.16564801297728352 0.12171703381592866 0.0
0.10566724488770067 0.14959822404905534 0.0
0.036297478376779414 0.16418695557443033 0.0
-0.03629747837677932 0.16418695557443033 0.0
-0.10566724488770059 0.14959822404905537 0.0
-0.16564801297728346 0.12171703381592869 0.0
-0.21091022817950283 0.08302075098185188 0.0
-0.23743214404368207 0.03694771009247258 0.0
-0.24285717195577797 -0.012408296980977876 0.0
-0.22670327437845794 -0.060661772414754185 0.0
-0.19040579600167865 -0.10352518315967604 0.0
-0.1371899270680775 -0.13718992706807723 0.0
-0.07178413106639883 -0.15866474390840124 0.0
-1.1253086267107669e-17 -0.23044887497479988 0.0
0.05416917608622552 -0.2202106780499291 0.0
0.1035251831596761 -0.19040579600167862 0.0
0.14368252339660603 -0.14368252339660603 0.0
0.17107304088937925 -0.08419242804737674 0.0
0.18326296795745659 -0.017221465993753075 0.0
0.1791691760862255 0.05127969888857437 0.0
0.15915541664875474 0.1152244374873998 0.0
0.12500000000000008 0.1689309791613546 0.0
0.07973778479778056 0.20762726199543155 0.0
0.027390517492773343 0.2278749514439827 0.0
-0.027390517492773273 0.22787495144398273 0.0
-0.07973778479778049 0.20762726199543163 0.0
-0.12500000000000003 0.16893097916135466 0.0
-0.15915541664875466 0.11522443748740004 0.0
-0.1791691760862255 0.051279698888574456 0.0
-0.1832629679574566 -0.017221465993752783 0.0
-0.17107304088937933 -0.08419242804737657 0.0
-0.1436825233966061 -0.143682523396606 0.0
-0.10352518315967621 -0.19040579600167848 0.0
-0.05416917608622563 -0.22021067804992903 0.0
-6.593875395960403e-18 -0.2743798541361546 0.0
0.03174105209327741 -0.2621899270680773 0.0
0.06066177241475431 -0.22670327437845783 0.0
0.08419242804737674 -0.17107304088937925 0.0
0.10024221697560484 -0.10024221697560484 0.0
0.1073850450198269 -0.020504432177824383 0.0
0.10498624056252923 0.0610552614011744 0.0
0.0932589479067227 0.13718992706807714 0.0
0.07324518846925186 0.20113466566690277 0.0
0.04672327260507262 0.24720770655628205 0.0
0.016049788928228177 0.27131525786498395 0.0
-0.016049788928228136 0.271315257864984 0.0
-0.046723272605072586 0.24720770655628213 0.0
-0.07324518846925182 0.20113466566690283 0.0
-0.09325894790672264 0.13718992706807742 0.0
-0.10498624056252921 0.061055261401174496 0.0
-0.10738504501982692 -0.020504432177824036 0.0
-0.10024221697560487 -0.10024221697560465 0.0
-0.08419242804737677 -0.1710730408893792 0.0
-0.06066177241475438 -0.2267032743784577 0.0
-0.031741052093277475 -0.26218992706807726 0.0
-1.348769759136497e-18 -0.2939309791613547 0.0
0.00649259632852878 -0.2808724504646834 0.0
0.012408296980978086 -0.24285717195577794 0.0
0.017221465993753075 -0.18326296795745659 0.0
0.020504432177824383 -0.1073850450198269 0.0
0.021965489580677476 -0.021965489580677476 0.0
0.021474816840324044 0.0654057960016786 0.0
0.01907601238302636 0.14696548958067718 0.0
0.014982220511795276 0.21546665446300464 0.0
0.009557192599699395 0.26482266153645523 0.0
0.0032829661840713263 0.2906480129772834 0.0
-0.0032829661840713177 0.29064801297728343 0.0
-0.009557192599699386 0.26482266153645534 0.0
-0.014982220511795267 0.2154666544630047 0.0
-0.019076012383026347 0.14696548958067748 0.0
-0.021474816840324044 0.0654057960016787 0.0
-0.02196548958067748 -0.021965489580677105 0.0
-0.02050443217782439 -0.10738504501982668 0.0
-0.017221465993753078 -0.1832629679574565 0.0
-0.012408296980978102 -0.24285717195577777 0.0
-0.006492596328528793 -0.28087245046468334 0.0
4.0161799897652924e-18 -0.2873650467932121 0.0
-0.01933275511229936 -0.2745982240490553 0.0
-0.03694771009247252 -0.2374321440436821 0.0
-0.05127969888857437 -0.1791691760862255 0.0
-0.0610552614011744 -0.10498624056252923 0.0
-0.0654057960016786 -0.021474816840324044 0.0
-0.06394473859882552 0.06394473859882552 0.0
-0.05680191055460349 0.1436825233966059 0.0
-0.04461198348652618 0.2106534854502297 0.0
-0.028458085909206093 0.258906960884006 0.0
-0.00977556251260008 0.28415541664875466 0.0
0.009775562512600054 0.28415541664875466 0.0
0.028458085909206073 0.25890696088400605 0.0
0.04461198348652616 0.21065348545022974 0.0
0.056801910554603444 0.1436825233966062 0.0
0.06394473859882552 0.06394473859882562 0.0
0.0654057960016786 -0.021474816840323686 0.0
0.06105526140117443 -0.104986240562529 0.0
0.051279698888574386 -0.17916917608622546 0.0
0.036947710092472566 -0.23743214404368193 0.0
0.019332755112299402 -0.27459822404905526 0.0
9.02427452186083e-18 -0.25526546893675606 0.0
-0.04344030642100123 -0.24392474037221096 0.0
-0.0830207509818517 -0.210910228179503 0.0
-0.1152244374873998 -0.15915541664875474 0.0
-0.13718992706807714 -0.0932589479067227 0.0
-0.14696548958067718 -0.01907601238302636 0.0
-0.1436825233966059 0.05680191055460349 0.0
-0.12763273446837786 0.12763273446837786 0.0
-0.10024221697560473 0.18712282981760733 0.0
-0.06394473859882549 0.22998624056252923 0.0
-0.021965489580677438 0.25241436455547733 0.0
0.021965489580677382 0.2524143645554774 0.0
0.06394473859882545 0.22998624056252928 0.0
0.10024221697560468 0.1871228298176074 0.0
0.12763273446837778 0.12763273446837814 0.0
0.14368252339660587 0.05680191055460358 0.0
0.14696548958067718 -0.019076012383026038 0.0
0.13718992706807717 -0.09325894790672253 0.0
0.11522443748739983 -0.1591554166487547 0.0
0.0830207509818518 -0.21091022817950286 0.0
0.04344030642100132 -0.2439247403722109 0.0
1.3230522660312595e-17 -0.20048443395120968 0.0
-0.0636879958695524 -0.19157747306720366 0.0
-0.12171703381592866 -0.16564801297728352 0.0
-0.1689309791613546 -0.12500000000000008 0.0
-0.20113466566690277 -0.07324518846925186 0.0