# vtk DataFile Version 2.0
test
ASCII
DATASET UNSTRUCTURED_GRID
POINTS 10000 float
0.6856000906224587 -0.39110197678522246 0.6139965468088298
-0.15266124281217774 0.9158412518297994 0.37138840368254256
0.13800044632066866 -0.020080579608837603 -0.990228583276543
0.13612203533995593 -0.11557279135109655 -0.9839277013044321
-0.029715854975632065 0.08298027122174867 -0.9961080476288866
-0.06313510780607995 0.7644755112070067 0.6415537007352545
-0.44080342392430205 0.458287736896613 -0.771793166377361
0.08783997660116445 0.9812427070671853 -0.17160095669362918
0.2134953341815646 0.841471035311971 -0.4963327905888364
0.6385061875533793 -0.02460850688749563 -0.7692231599768802
-0.07200549113603752 -0.021130361646604645 0.9971803834126209
0.24271859795257344 -0.09955335152109619 -0.9649750320131885
0.15274037149886716 -0.4164305837548821 -0.8962454729748743
-0.2612432504110198 -0.9608067400273117 0.09274897537318161
-0.1695468563257863 -0.8808233836898387 -0.4420452807747488
0.9621540681145108 -0.021918735802645528 0.27162311799902317
0.23073339704204196 0.9722108543477365 -0.039599926488362636
0.8502999009042894 0.23201583306223958 0.47239679479288443
-0.9767556307668918 -0.04953768714903323 -0.20855324336268666
-0.6287248791582957 0.09670427409354243 0.7715914137025033
-0.806318347735671 0.18137625284539338 -0.5629861250586745
0.18065649052893376 -0.8072930166873148 -0.5618195596787852
0.8950358097665534 0.4277673669351793 0.12619817360355823
-0.7402194051099786 -0.34934047344789876 0.5744880032775508
0.6521308658537278 0.727098367163543 0.21460032215487646
-0.2265130253967661 -0.2129873989390684 -0.9504358038388359
0.7719616827281963 -0.2762851849884968 0.5724872548409472
0.664814509504594 0.5077821251165249 0.5478859200274377
-0.36850016587441115 -0.24605843142702935 0.8964724625297764
0.09160020131548119 0.9947203962282155 -0.04626809318034586
0.5825646098767681 0.8123863486066971 0.025434148631455322
0.7026523245744222 -0.32535399000830056 0.6327910334034763
-0.9852820912564209 0.04440750125352603 0.16506718172244894
-0.5663926597961444 0.656052157877759 0.49879346534711644
-0.42266084043773977 0.9056447454411757 0.03413808745743574
0.27456359020393084 0.8657743225979989 0.41838936084023937
0.2653948717617412 0.6028694351452516 -0.7524054799177198
0.10901980197186852 -0.9938937710938278 -0.017025115532768975
-0.22581276353445867 0.8909943006646919 0.3938753000734716
0.3183224533499539 -0.8243190418923176 -0.4681548171993939
-0.9651341208744945 0.07396102144225211 0.2510894183971826
0.26000862868959806 -0.8729460478338464 -0.4127477565998665
0.7622244253648712 0.39665084255937444 0.5115486628602701
0.20679877568866875 -0.6020449388245547 0.7712173221663308
0.5304920564351906 0.26305912381752544 -0.8058399812838268
-0.67593426817819 0.472021795891586 -0.5659578511741812
0.26234146324623003 -0.6550042747167029 0.7086228593297517
0.4845833000222398 0.26522618334643494 0.8335670920849978
0.8392155543382149 0.240769758942561 -0.4875932490668258
-0.09615632089182306 -0.9851600652904932 0.14217456773058967
-0.9927100475322993 -0.07846081998526298 0.09149131792503784
0.7159656793198741 0.3966772255497831 -0.5744913617854994
-0.15777819609437468 -0.4627541472642431 -0.8723328722608981
-0.3392852095811143 0.8898571755325937 0.3050241854552753
0.31840109497087365 -0.3268237092527007 0.8898353812878284
0.4674219441806996 0.4026848178584163 0.7869953389726454
0.5380654984367887 0.46548623755855817 0.7027147942341527
-0.6110873999178922 -0.7285735856745493 -0.30943936388074555
0.36754096601678005 -0.9086929805411198 0.1979664249683477
-0.009865885887604271 0.993812327584648 0.11063327635226639
-0.946336120591267 0.09207503756986925 0.3097904684149888
0.6783046458583221 -0.3131610322498968 0.6647051792239891
0.09194908065975799 -0.4477449064841779 0.8894210843482968
-0.10930957438657225 -0.6372392242531643 -0.7628745558875665
0.7966789857878226 -0.4645634877904945 0.3866307791886432
0.24703525151694977 0.9313931648163388 -0.2673581063692694
-0.7613140281342816 0.6166793287009559 -0.20026870978486033
0.507174428615297 0.8155170028774978 0.27875816934477493
0.2056689122414301 0.3071522133930768 -0.9291704990717047
0.7664603002509065 -0.6422645385581798 -0.00590513758847
0.0431409147187772 -0.39103869642479244 0.9193626049473766
-0.9080320732094262 -0.4059341746556508 -0.10341759941918327
0.13400466230874503 -0.4287433423590747 0.8934326481958719
0.5841788872995353 -0.1583219596764768 -0.7960334067849646
-0.7101632681876893 0.4520309832612813 0.5397556138557702
-0.3169003197711912 -0.9481414135253372 0.02453665191284693
-0.9244567408630159 -0.18452626606956196 -0.33366119253421744
-0.8592664903550541 -0.023966471318614766 0.5109664439133372
-0.0389640892495164 -0.7384205255457112 -0.6732138792402838
0.8182387915404684 0.30860798246803856 0.4850220543185646
0.9828550495441806 0.1732445873818973 -0.06310518622413253
0.5571464602895236 0.5941713318343143 0.5801277878304845
-0.4424443814307231 -0.699545016450083 -0.5611414610418997
-0.8192534995071863 0.43192439883831163 0.3771803510701368
0.02894149202833931 -0.10642915838845204 0.9938990010478426
-0.7081903581145552 0.55740901683104 -0.4333146716060181
0.009101156047610599 0.41486311588361113 0.9098383175256681
-0.08755390304463138 -0.21463716680166003 0.9727616361108242
-0.18116023159840164 -0.9359884960742642 -0.3018385424425625
0.46786238907179584 0.8814056790335539 -0.06502933076259598
0.12583897678011668 -0.8690481167820834 -0.4784557687398572
0.39521123045712103 0.2383315242522115 0.8871336809456543
0.7471715344533569 0.13603384466611207 -0.6505609050719019
-0.6485432939377616 -0.27980008949907176 0.707886647567723
-0.6916896579393231 0.41518241221998825 0.5909221451959419
0.8046460322440521 0.3035215200200681 -0.5103130898562287
0.2235461217216649 -0.0021820784938288047 -0.9746909099794916
-0.7917547776817444 -0.4919713573017849 0.36206153567145316
0.9028314842197244 0.3782728114309263 0.20446268909938636
-0.2913866342998791 0.902251597347026 0.3178614233217498
0.37529494487112003 -0.9266184230993672 -0.02306517563395505
-0.7516497292137508 0.44980734685983087 0.4823857743381481
-0.7209812738785922 0.44914315212821404 -0.5276897114903172
-0.4984290285208141 -0.8358689032608351 -0.2299819125264555
-0.20254336196851258 -0.4415787969858942 0.874061984400982
-0.7503037354945397 0.6179964346971618 0.23478652262115962
-0.38668264108978906 0.8448906516544782 -0.36964350640407084
0.05646490323330703 -0.8480878539290274 -0.5268384066494298
-0.67801242060739 -0.10044591207612619 0.7281550495940428
-0.28467765818385526 -0.5230179593971683 0.803374660466073
0.50421006692584 -0.5247907264817435 0.6858329984838902
0.8706929635619526 0.41935999509971705 0.2569648958781523
-0.31492604438915905 -0.8787479610166864 0.3586413355630018
-0.11467657329923783 0.2734943575218922 0.9550131517105049
0.050489668223553684 -0.8781501422767857 0.47571327606231084
0.6869822299781577 0.7075186010126212 0.16574934363484206
0.44880223492136073 -0.8918524825594623 0.05635337862201317
0.14671836059775628 0.8732726794661195 -0.46461656229795656
-0.9072778184619695 0.2850532023665429 0.30917896427064373
-0.30677655810413057 0.7931393798444271 -0.5261350278567098
-0.20948395144436413 0.950625445207986 -0.2289710396761424
-0.6771247372947835 -0.2498854441911029 0.6921411380093554
0.8158658953032621 0.4767688192213161 -0.32719158592378017
-0.479958509308781 0.5823041297194902 0.6561720276373566
-0.9493053582998644 -0.26471917631597025 -0.16953788483333265
-0.04678419928369855 -0.1061460228775191 0.993249344588089
0.5755130840308605 0.7255889674854243 -0.37723380067634893
0.6452961934950502 0.1577545192144049 -0.7474666108450803
0.6674849732552756 0.662363312032867 -0.34020384088257294
-0.7873862940487761 0.4130653227383085 -0.45760229795667673
0.5310298221061303 0.8471087990061263 0.020347252402475258
0.9960437155115943 -0.016980389485456375 0.08722719279433666
0.38007482924029945 0.5284129384133772 0.7591593315604424
0.688956055068651 -0.5727136079030125 0.4442281818018261
0.7768711706306065 -0.2961635787936976 -0.5556602548672527
0.34115931158449575 -0.7537848828302133 -0.56162146908379
-0.3114224236340041 0.061863825423269105 -0.9482557361608324
0.20467245653817284 -0.1902704683031984 0.960159535924271
-0.4091519971807455 -0.509787682052928 0.7567768247179019
-0.7058345641127676 0.6963952515405132 -0.1297351985220847
-0.31476565820551816 0.7779343599818195 0.5438204777076014
0.28909314819248333 0.811621292849342 -0.5076376942876892
-0.7664856716392566 0.6384281145679787 0.07006609523081475
-0.7602983595830439 -0.2357420428898328 -0.605286786267023
0.5313357298378711 -0.8185588392494461 -0.21827452642087275
-0.7494571618358613 -0.051045645680062285 0.6600820438627619
-0.708305387320063 -0.13089339378192882 0.6936644705890771
0.416000835994772 -0.6884803935382497 0.5940858962852658
0.42851916247184046 -0.9025075281261663 -0.04302893294086574
0.7122217630310063 0.10614374469999532 0.6938830346146729
-0.2663199551131907 -0.9118174620319043 -0.3125101557425052
-0.9926802567307031 -0.11437772870343772 -0.038776836819267135
0.531964098376959 0.636561367822437 -0.5583939675838352
-0.9033081885092681 -0.0020966658978789697 0.42898708671033137
0.528473669061527 0.2807487181282701 0.8011839603848674
0.7088545056275791 0.3109987620553927 -0.6330916678108263
0.35053193848265046 0.18717213493248494 -0.9176567724418596
0.14797995586990148 0.9864882421694493 0.07030562368809279
-0.7050077444321305 -0.564609749210354 0.429161870845187
-0.7438796420746012 -0.20301259148419123 -0.6367330412392906
-0.8521687020757975 -0.3084498042141636 -0.42269045586894305
-0.7981071614379244 -0.6010945188111302 -0.041356236732988716
-0.9713455045519276 -0.00782394878164783 0.237543041599251
-0.9227192574946931 -0.28204948174595873 0.26274942758316056
0.7895252389165461 0.5727474513265961 0.22047733242367373
-0.5281886234423884 0.8262862875780461 0.19562144316645136
-0.6178712255189625 0.5781848564335654 -0.5328577863432165
[...]
POINT_DATA 10000
VECTORS vector float
-0.39110197678522246 -0.6856000906224587 0
0.9158412518297994 0.15266124281217774 0
-0.020080579608837603 -0.13800044632066866 0
-0.11557279135109655 -0.13612203533995593 0
0.08298027122174867 0.029715854975632065 0
0.7644755112070067 0.06313510780607995 0
0.458287736896613 0.44080342392430205 0
0.9812427070671853 -0.08783997660116445 0
0.841471035311971 -0.2134953341815646 0
-0.02460850688749563 -0.6385061875533793 0
-0.021130361646604645 0.07200549113603752 0
-0.09955335152109619 -0.24271859795257344 0
-0.4164305837548821 -0.15274037149886716 0
-0.9608067400273117 0.2612432504110198 0
-0.8808233836898387 0.1695468563257863 0
-0.021918735802645528 -0.9621540681145108 0
0.9722108543477365 -0.23073339704204196 0
0.23201583306223958 -0.8502999009042894 0
-0.04953768714903323 0.9767556307668918 0
0.09670427409354243 0.6287248791582957 0
0.18137625284539338 0.806318347735671 0
-0.8072930166873148 -0.18065649052893376 0
0.4277673669351793 -0.8950358097665534 0
-0.34934047344789876 0.7402194051099786 0
0.727098367163543 -0.6521308658537278 0
-0.2129873989390684 0.2265130253967661 0
-0.2762851849884968 -0.7719616827281963 0
0.5077821251165249 -0.664814509504594 0
-0.24605843142702935 0.36850016587441115 0
0.9947203962282155 -0.09160020131548119 0
0.8123863486066971 -0.5825646098767681 0
-0.32535399000830056 -0.7026523245744222 0
0.04440750125352603 0.9852820912564209 0
0.656052157877759 0.5663926597961444 0
0.9056447454411757 0.42266084043773977 0
0.8657743225979989 -0.27456359020393084 0
0.6028694351452516 -0.2653948717617412 0
-0.9938937710938278 -0.10901980197186852 0
0.8909943006646919 0.22581276353445867 0
-0.8243190418923176 -0.3183224533499539 0
0.07396102144225211 0.9651341208744945 0
-0.8729460478338464 -0.26000862868959806 0
0.39665084255937444 -0.7622244253648712 0
-0.6020449388245547 -0.20679877568866875 0
0.26305912381752544 -0.5304920564351906 0
0.472021795891586 0.67593426817819 0
-0.6550042747167029 -0.26234146324623003 0
0.26522618334643494 -0.4845833000222398 0
0.240769758942561 -0.8392155543382149 0
-0.9851600652904932 0.09615632089182306 0
-0.07846081998526298 0.9927100475322993 0
0.3966772255497831 -0.7159656793198741 0
-0.4627541472642431 0.15777819609437468 0
0.8898571755325937 0.3392852095811143 0
-0.3268237092527007 -0.31840109497087365 0
0.4026848178584163 -0.4674219441806996 0
0.46548623755855817 -0.5380654984367887 0
-0.7285735856745493 0.6110873999178922 0
-0.9086929805411198 -0.36754096601678005 0
0.993812327584648 0.009865885887604271 0
0.09207503756986925 0.946336120591267 0
-0.3131610322498968 -0.6783046458583221 0
-0.4477449064841779 -0.09194908065975799 0
-0.6372392242531643 0.10930957438657225 0
-0.4645634877904945 -0.7966789857878226 0
0.9313931648163388 -0.24703525151694977 0
0.6166793287009559 0.7613140281342816 0
0.8155170028774978 -0.507174428615297 0
0.3071522133930768 -0.2056689122414301 0
-0.6422645385581798 -0.7664603002509065 0
-0.39103869642479244 -0.0431409147187772 0
-0.4059341746556508 0.9080320732094262 0
-0.4287433423590747 -0.13400466230874503 0
-0.1583219596764768 -0.5841788872995353 0
0.4520309832612813 0.7101632681876893 0
-0.9481414135253372 0.3169003197711912 0
-0.18452626606956196 0.9244567408630159 0
-0.023966471318614766 0.8592664903550541 0
-0.7384205255457112 0.0389640892495164 0
0.30860798246803856 -0.8182387915404684 0
0.1732445873818973 -0.9828550495441806 0
0.5941713318343143 -0.5571464602895236 0
-0.699545016450083 0.4424443814307231 0
0.43192439883831163 0.8192534995071863 0
-0.10642915838845204 -0.02894149202833931 0
0.55740901683104 0.7081903581145552 0
0.41486311588361113 -0.009101156047610599 0
-0.21463716680166003 0.08755390304463138 0
-0.9359884960742642 0.18116023159840164 0
0.8814056790335539 -0.46786238907179584 0
-0.8690481167820834 -0.12583897678011668 0
0.2383315242522115 -0.39521123045712103 0
0.13603384466611207 -0.7471715344533569 0
-0.27980008949907176 0.6485432939377616 0
0.41518241221998825 0.6916896579393231 0
0.3035215200200681 -0.8046460322440521 0
-0.0021820784938288047 -0.2235461217216649 0
-0.4919713573017849 0.7917547776817444 0
0.3782728114309263 -0.9028314842197244 0
0.902251597347026 0.2913866342998791 0
-0.9266184230993672 -0.37529494487112003 0
0.44980734685983087 0.7516497292137508 0
0.44914315212821404 0.7209812738785922 0
-0.8358689032608351 0.4984290285208141 0
-0.4415787969858942 0.20254336196851258 0
0.6179964346971618 0.7503037354945397 0
0.8448906516544782 0.38668264108978906 0
-0.8480878539290274 -0.05646490323330703 0
-0.10044591207612619 0.67801242060739 0
-0.5230179593971683 0.28467765818385526 0
-0.5247907264817435 -0.50421006692584 0
0.41935999509971705 -0.8706929635619526 0
-0.8787479610166864 0.31492604438915905 0
0.2734943575218922 0.11467657329923783 0
-0.8781501422767857 -0.050489668223553684 0
0.7075186010126212 -0.6869822299781577 0
-0.8918524825594623 -0.44880223492136073 0
0.8732726794661195 -0.14671836059775628 0
0.2850532023665429 0.9072778184619695 0
0.7931393798444271 0.30677655810413057 0
0.950625445207986 0.20948395144436413 0
-0.2498854441911029 0.6771247372947835 0
0.4767688192213161 -0.8158658953032621 0
0.5823041297194902 0.479958509308781 0
-0.26471917631597025 0.9493053582998644 0
-0.1061460228775191 0.04678419928369855 0
0.7255889674854243 -0.5755130840308605 0
0.1577545192144049 -0.6452961934950502 0
0.662363312032867 -0.6674849732552756 0
0.4130653227383085 0.7873862940487761 0
0.8471087990061263 -0.5310298221061303 0
-0.016980389485456375 -0.9960437155115943 0
0.5284129384133772 -0.38007482924029945 0
-0.5727136079030125 -0.688956055068651 0
-0.2961635787936976 -0.7768711706306065 0
-0.7537848828302133 -0.34115931158449575 0
0.061863825423269105 0.3114224236340041 0
-0.1902704683031984 -0.20467245653817284 0
-0.509787682052928 0.4091519971807455 0
0.6963952515405132 0.7058345641127676 0
0.7779343599818195 0.31476565820551816 0
0.811621292849342 -0.28909314819248333 0
0.6384281145679787 0.7664856716392566 0
-0.2357420428898328 0.7602983595830439 0
-0.8185588392494461 -0.5313357298378711 0
-0.051045645680062285 0.7494571618358613 0
-0.13089339378192882 0.708305387320063 0
-0.6884803935382497 -0.416000835994772 0
-0.9025075281261663 -0.42851916247184046 0
0.10614374469999532 -0.7122217630310063 0
-0.9118174620319043 0.2663199551131907 0
-0.11437772870343772 0.9926802567307031 0
0.636561367822437 -0.531964098376959 0
-0.0020966658978789697 0.9033081885092681 0
0.2807487181282701 -0.528473669061527 0
0.3109987620553927 -0.7088545056275791 0
0.18717213493248494 -0.35053193848265046 0
0.9864882421694493 -0.14797995586990148 0
-0.564609749210354 0.7050077444321305 0
-0.20301259148419123 0.7438796420746012 0
-0.3084498042141636 0.8521687020757975 0
-0.6010945188111302 0.7981071614379244 0
-0.00782394878164783 0.9713455045519276 0
-0.28204948174595873 0.9227192574946931 0
0.5727474513265961 -0.7895252389165461 0
0.8262862875780461 0.5281886234423884 0
0.5781848564335654 0.6178712255189625 0
0.8856598350064412 0.18043345779710984 0
0.09905644280474692 -0.31117006435909694 0
0.24779297710305934 -0.18066362945749198 0
0.815044442600237 -0.5637678113609347 0
0.14704103793521697 -0.9470576098213092 0
-0.5565208226073519 0.49692114713996327 0
-0.7413162137351106 -0.6322862969041749 0
0.8902246172063837 0.11134466614370393 0
0.22315385716423855 -0.33679040453198933 0
-0.7344617853029729 -0.1628599007727071 0
-0.43995034263768207 -0.15946432913344896 0
0.5646192512143892 -0.8167440233683381 0
0.32954019038073484 -0.926968004500986 0
-0.3946239626802218 -0.28293871614108745 0
-0.690875439303084 0.6655003276847706 0
0.5536513674493395 -0.7459889003748871 0
-0.38056899177535414 0.8779752885159613 0
-0.23292479695695006 -0.1520715181798861 0
0.33923014392068085 0.20369261770009925 0
-0.6970213867534218 -0.7159098481435209 0
-0.6814542300029272 -0.49996614288447305 0
0.916964184707545 0.39814174637339217 0
0.7025339141040435 0.3274187109025952 0
0.3118381871910154 0.1808070690366671 0
-0.6175106465682132 -0.3148278730632981 0
-0.3673985886033974 0.6725279432618457 0
0.9195298991545598 -0.014157324926628133 0
0.5404088648949268 0.022484506063718893 0
0.6742565423699476 0.5362224402592868 0
-0.3067066342258761 0.9286596418987717 0
0.038111014448051345 0.9441901986450437 0
-0.8167646679746603 0.5620812608468656 0
0.9286604907639127 -0.3528092671323576 0
-0.4011607171286383 -0.24852355066841336 0
0.2268537710938381 0.6336322748616309 0
0.6743206581673066 0.7277015869508369 0
0.5954007598058819 -0.4626680593070108 0
-0.6769000600155134 -0.16800013665606375 0
0.39637313967504634 -0.9162485575529407 0
0.682961801363947 0.49320729667539337 0
-0.4199868784828493 -0.24610771027862094 0
0.7000530095052888 -0.4896071352855078 0
-0.40938295656034507 -0.2962159259082453 0
-0.24841044784109226 -0.2137224739257974 0
-0.8836848998144899 0.1504716952965661 0
-0.04271417464238498 0.6476212155105712 0
-0.38553821910093505 -0.38270326881892514 0
-0.5332636648732249 0.8292139248365197 0
-0.18327332386455125 0.2316097882581047 0
0.7640168253887312 0.17050344137543477 0
-0.4798486318710302 0.04099236547684991 0
-0.1332210081863446 -0.9754730830400342 0
-0.5009126714812486 0.48987781642231043 0
-0.23196887344110245 0.9055338606416603 0
0.8511638480208688 0.18235196414394408 0
0.6666821206057061 0.47812040237942016 0
0.2801716523525736 -0.6048264153320357 0
-0.9103543289157517 0.39530612501128304 0
0.9069671053184882 0.3735983078341919 0
0.26316140687377115 0.8752694786270336 0
-0.31303601411914833 0.9326303757214209 0
0.5499024664732277 -0.7910093253706965 0
-0.6108771341945757 -0.47365830936281494 0
-0.8774123249006486 0.4780901034295007 0
-0.20784116804668165 -0.7378764146844881 0
-0.47385280009139935 -0.44454551009775517 0
0.21350351644092813 0.8309385470444518 0
-0.38203587405423717 0.47036330101558604 0
0.9293081936963219 0.1188999318872364 0
0.34765694416624915 -0.6710332323318788 0
0.5722167607351233 0.25157102374855167 0
0.5965194817722147 -0.4543416302154195 0
-0.13145356959664878 0.9904830167856812 0
-0.8685622242267291 -0.31622088958044997 0
0.6236738955588137 -0.273899146873128 0
0.836148429278402 -0.5419924673573561 0
0.7561167589854145 0.5763342856260916 0
0.062404975878425896 0.6842185390974191 0
0.6345039041856773 -0.43663752387224114 0
0.8449768910610894 -0.38632765216611026 0
0.43427555099036586 -0.8490540325089329 0
0.8815649597180086 -0.2365374208724886 0
-0.3225572378515399 -0.8914936911590524 0
0.33770884042152244 0.41592623701114456 0
-0.4193913532673766 -0.48538657135948815 0
0.41656570607288473 0.34486103517781425 0
-0.63522292950572 -0.5839901201483044 0
0.767192011747997 0.6258002454578211 0
0.694683610755124 0.03616073721020037 0
-0.8438672068839913 0.08877017009541341 0
-0.19299948392776536 -0.7715356655897254 0
-0.07544988500253504 0.847510013881103 0
0.922893113680229 0.05438005320426637 0
-0.022430194166919683 0.48959071836651674 0
0.6463210598069888 -0.5317429545370582 0
0.2648781658797429 -0.25792842326638277 0
0.152573219425315 -0.9353528837939198 0
-0.3440517513601691 -0.6209244163623461 0
-0.6133048643613551 -0.5295817776047123 0
0.9877428949420123 -0.12205353668360756 0
0.5273481486951366 -0.7577956007471762 0
-0.7530850524610657 0.02131776079176909 0
-0.9250718916144166 0.3619519589910627 0
-0.3790601627959196 -0.7064333713370498 0
0.26819135509167474 0.7896674155945237 0
0.9263455676410737 0.3201538381196364 0
-0.8100993925692445 0.43745209122191536 0
-0.26070961356864664 0.35756526102927966 0
-0.21824443153982465 0.5852718395296744 0
-0.694409120846111 -0.6822290435973949 0
0.2973531451653838 -0.5363856239256386 0
-0.45373747761310146 0.5759973889735988 0
-0.7348305083835931 -0.6763859719512192 0
-0.17481569947438838 -0.8857713582366785 0
0.03189386630165976 0.9381248144511177 0
0.557075393609631 -0.2722705621239721 0
0.04693753104526361 0.9969264684076381 0
0.2908214783332331 0.9459806829970792 0
0.6339934066899786 0.3750766085105257 0
-0.23803112381503397 0.9572434103116744 0
0.7879107169491196 -0.4836985215791825 0
-0.6184916981848615 -0.7642298371889698 0
0.5989958789408004 0.728762654217082 0
-0.6093327307553067 -0.2203002684164271 0
-0.3734613749441528 0.7276292675443757 0
-0.6027804751030962 0.6667663218631583 0
0.5492213266879581 -0.6768210538603302 0
-0.37247060360912737 -0.880165289948041 0
0.2646456561653207 0.9639819786807579 0
-0.9083682644557319 -0.22227830649688785 0
0.748902823368464 -0.3176536838939201 0
0.13395278995913698 -0.2698720370958581 0
-0.38589654620849884 -0.33020054050043557 0
-0.6246457980556684 -0.5994893232512841 0
-0.8583261365958821 -0.14560675409405527 0
-0.710641851857235 0.5613409120924551 0
0.761965355413063 0.5135001419794721 0
0.7784295829640302 0.610004194753516 0
0.319098263202637 0.5231101400812621 0
0.42130670413605226 -0.9061620516776784 0
-0.18530206047296974 -0.9274465174562939 0
0.2384815621979935 -0.9710974548536727 0
0.27269554405748475 0.0073849847933127495 0
-0.22230448132520816 0.7375430695491217 0
0.36286272214114496 -0.7204026002642686 0
-0.9793495654763091 0.11243357403551203 0
-0.8353357797052047 -0.45525453778837754 0
0.29859723457604137 0.40508423109945146 0
0.23003995673108216 -0.8318452856266397 0
-0.8709887515175236 -0.15910742888501825 0
-0.9809216410281633 0.1836849864498174 0
0.29500022492527356 0.9437889284469458 0
0.17007299972797113 -0.7440344519381228 0
0.514787789502597 0.8435564710640147 0
0.48875113632218903 0.8446682446257745 0
0.304525206536331 0.8888461539362051 0
-0.21280023473442555 -0.8803852456462155 0
-0.08852379688773235 -0.7490342262919826 0
0.11982697583292644 0.20551433221070875 0
-0.44668750242296457 -0.5637036308802115 0
0.47956101585160527 -0.08766567119698056 0
-0.4556190959272188 -0.7480947973991333 0
-0.01817609224573997 -0.2459094625016666 0
-0.5055710761137168 -0.8441978966577913 0
-0.2327265210969639 -0.3198630480876052 0
-0.36898221612801946 -0.8965255269948049 0
0.05189007831655426 -0.8726131934004664 0
-0.0208864622789869 -0.7760814442453745 0
-0.9213702795205005 -0.2539228430460105 0
0.037133477405096225 -0.3258746310674958 0
-0.9181501599148184 -0.032860918467261434 0
0.2526711532191835 -0.6520606945353976 0
-0.17465794901819473 -0.19058965432877223 0
0.7437388875422464 0.6485262485659159 0
-0.800015244529657 -0.41809239756964345 0
0.6252794071947148 0.736556543549235 0
0.028986959724726376 -0.316071853352023 0
-0.18985865609748553 0.5379989261132971 0
-0.883247705842812 0.005860651498120466 0
-0.9937055188167183 0.05989264190353616 0
-0.9400436016515954 0.08936815729792309 0
-0.26653914882667656 -0.6457293450309955 0
0.0034311144188841677 0.9998950977445387 0
0.10902793819626347 0.12802411453479737 0
-0.9804682365842613 0.12261345522739593 0
0.9634349374451133 0.22982665874615227 0
0.004691937350913963 0.8870923203140617 0
-0.6375209114093091 -0.5270572064109772 0
-0.19637225052576615 0.632668131206977 0
0.495741368830524 -0.7122176196130351 0
0.5565083018853273 0.5658884200208896 0
-0.8854500036714403 0.18245427449525978 0
-0.38374088151817337 -0.12618119877028458 0
0.9627772662258407 0.24910426517384482 0
-0.9463679168627236 -0.24938236497621796 0
-0.08172320532681586 0.9581672274125687 0
0.27754869837039997 0.5385606405402478 0
-0.4603729354696529 -0.755192316274229 0
0.32968599014778904 0.813128400682483 0
0.4145748427231279 -0.16716879568538973 0
-0.6549427744094629 0.567191563170294 0
-0.6016026107800602 0.7523554733965038 0
0.106264465889673 -0.19925726703761001 0
-0.9878402209781281 0.06382354718464991 0
-0.7696256641063489 0.299280415237803 0
0.5521239353709381 -0.3807569815714736 0
0.462015069112406 0.190257803358993 0
-0.25214400297501954 -0.5070271239522145 0
-0.3563431922963111 -0.5963456552068561 0
-0.640095999079563 0.1829942692838742 0
-0.6527373995080531 0.6398781618318045 0
-0.5917603479563758 -0.27429537695252665 0
0.7778207258088443 -0.416947191871397 0
-0.5582375756349567 -0.7409778140770611 0
0.3827654724670683 -0.9185704871609021 0
0.07095472817201379 0.42457833313451765 0
-0.6668122629521868 -0.33407752171159144 0
-0.06458610407844093 -0.7175502650711676 0
0.6302648592313467 -0.3670855790641109 0
-0.7697612557698262 0.6325813052109345 0
0.58509118509462 0.7177684184997248 0
0.11850963298431086 -0.052078744207077636 0
-0.03806887144696407 0.9943776028221677 0
-0.3947028870546478 0.7529656030565278 0
-0.09299587515687496 0.8905302627202697 0
-0.14305318633715775 -0.41366664028300887 0
0.705746862041184 0.4400737932208885 0
-0.3502304767189476 0.07522779973435868 0
0.35741178386891054 0.10047059538984647 0
-0.797179625437874 0.6035310466168693 0
-0.7602370760037472 0.46224943843447186 0
-0.32788767396288737 0.9437739438494621 0
0.8108270876408955 -0.007480076490122395 0
-0.9311834172680766 -0.1349516049941364 0
0.6007511647491074 -0.49921033318634217 0
0.6056842214253663 -0.7553925023565637 0
0.9108038342261737 -0.3948339713119684 0
-0.5614820649899159 0.8225683652462573 0
0.3450837984429182 -0.6693832179877225 0
0.7963104667730957 -0.6030957278676032 0
-0.8612932646272051 -0.3791459207086154 0
0.5258362391588686 -0.5169456060343502 0
0.8250044365713736 -0.13635759405420497 0
-0.48404242950096293 -0.7822663777734211 0
-0.9258994538975204 -0.1323511430185876 0
0.1766784123269567 -0.9125570508988267 0
0.723562919471449 -0.5136621030095183 0
0.4733190157726121 0.7280600926632366 0
0.15340241862651757 0.9787536692494274 0
-0.040630725048308336 -0.11623284686774679 0
0.7979476782421514 0.5934286221206898 0
-0.8663681307412356 0.19504199009265716 0
0.34046284545751715 0.8161107573658701 0
0.5248116130748207 0.3403255456013666 0
0.9182825597165546 0.243860994807238 0
0.2631139495366111 0.7996277107851225 0
0.9626535500371185 -0.012387153309959355 0
0.9256046728649622 -0.08881208390772555 0
-0.40098530753530703 0.8095389254868833 0
0.2736003667525164 0.5022447122542831 0
0.09343023787848655 -0.6398454813895916 0
0.8131906709710955 -0.2569811865002997 0
-0.18855092739750912 0.9430796747493506 0
-0.02656908181654551 -0.31935220920478374 0
0.6276646742837452 -0.3877476414452782 0
0.49914440319936015 -0.05048643016816629 0
0.6354308635353964 -0.3962018694569466 0
-0.29112206950901753 -0.269942812406126 0
0.362637310987775 -0.9314204515857767 0
0.6398803875825537 0.2942796943690222 0
-0.00020682563587548454 -0.9596059837334467 0
-0.3577222248974132 0.24569019629064529 0
0.5706155626310602 -0.8029741454011905 0
0.40133965316922887 0.009782642686907622 0
0.6247358671180606 -0.4609142592296395 0
0.030303450402360793 0.628570867883156 0
0.7157799154139588 0.3357154917296662 0
0.6254649045406799 -0.5817030073972689 0
-0.2290237735452096 -0.4181536953458301 0
0.5703813258427571 -0.7510112268443057 0
0.9185810831363964 0.3938323130173186 0
0.14609570531063462 0.9729599202623518 0
-0.6005964795467016 -0.7566358979539903 0
-0.009977258236693974 0.0485658570450101 0
-0.24053745464659082 0.44996396091226637 0
-0.6290177146552014 0.7161860467837228 0
-0.37096096205020623 0.5630559849542371 0
-0.6821177408297863 0.4361152819295869 0
-0.1777576123259062 0.6632859949934187 0
0.27918345092423835 0.25314159331538 0
0.5161098074897312 -0.5805662225785434 0
-0.33316342029726415 0.46850948217716626 0
-0.7284616400485436 -0.014585619258912736 0
0.3543346474134271 -0.8607368384569203 0
-0.40886690924373814 0.8710919284471267 0
0.6816380087857069 -0.44798731352262317 0
0.9485364619701043 -0.3036852174881736 0
0.48853578173827567 -0.16027956076117622 0
0.17996205831406648 -0.19470002706172676 0
-0.8066994239491082 -0.5691401417673919 0
-0.33016086221152735 -0.6444005637734805 0
0.8529278264455281 -0.5217344057848273 0
0.5131033584083682 -0.22738968727251319 0
-0.6021598608988622 0.780588036854281 0
0.33234583840138715 -0.08125161779496963 0
0.8530149774739256 0.20527737528612686 0
-0.31226523167010234 0.41532129037703697 0
-0.9169459104887319 -0.38794177153495013 0
-0.9672277159329651 0.04401285668217699 0
-0.6782251341021892 -0.734280896703017 0
-0.13329702932051937 -0.19995482069896214 0
0.6427656847673895 0.7126548512297923 0