# vtk DataFile Version 2.0
test
ASCII
DATASET UNSTRUCTURED_GRID
POINTS 10000 float
0.7186391991790346 0.6086733076301539 0.33626552898250495
0.6733851353662827 -0.07699130049673417 -0.7352719218871033
-0.6330753650730518 -0.7640376399962489 0.12434655928727811
0.5089096529721373 -0.08184995573072573 -0.8569198036331387
0.5576562942320394 -0.2587519491974602 0.7887121694825712
0.9232332165777296 0.0007910186995920156 -0.38423925111440105
0.6499879661125605 0.7438800021112809 -0.15542903965404142
0.22876422641235253 -0.9544909112164256 -0.1913479268745697
0.061458262843020084 -0.4965728834028063 -0.8658165240958047
0.3128071107562821 -0.2771308489480344 -0.9084878667443219
-0.5995975265174767 0.7993597617213691 0.03881723244745894
0.7362965851735908 -0.3414503444707446 -0.5841908942482064
-0.5608094435461906 -0.7082860253809737 0.4287466317995219
0.33202779678112904 -0.5109022782232405 -0.7929290032978815
0.014095123932854522 0.9102715062753954 0.4137718119258975
0.07556665871803107 0.9916628447051797 0.10437663781432627
-0.3800109091841519 0.9104312731231767 0.16342155861558094
0.2513430126904478 0.11790493822710105 -0.96068991642119
0.4144898149061048 0.2600366575401616 -0.8721118793334051
-0.8856257882541307 0.21451404593986254 0.4118867408326712
-0.7448364221565458 0.2607862296311836 -0.6141736290852835
-0.8650627411203125 0.08570951320045693 0.49428770293458846
-0.8064211578326665 -0.569123227165755 -0.16057293825628927
0.3911817272512126 -0.9065395717843503 0.15862805884774822
-0.5522525910377618 -0.7304012176925327 -0.4019093640179885
-0.17983264768692392 -0.7816334204140323 0.5972515507872469
-0.9090475201185909 -0.31791454335598734 0.26937510888906213
-0.38336683862630605 0.5868187575085648 -0.7132135815292471
-0.43199326040383407 -0.7515854057159778 -0.4984989477224744
0.45214407087762826 0.7977945753627201 -0.3988603197762637
0.7491728254287318 -0.08476230428537591 0.6569287856467887
0.8247274302611175 -0.23779188622588968 -0.5131078684058812
-0.2972663124615184 0.9547928035069126 -0.0018552215342264589
-0.14919977880938476 -0.08567928561736825 -0.9850880600328724
0.393414969416678 -0.6460635250921665 -0.654084538407963
0.6822375059197611 0.6424464400271687 0.34901942240053274
-0.05626807564515354 -0.25584059796553094 0.9650800443983032
0.613025831809331 0.21557957848051726 0.7600820843018472
0.709164777870007 -0.6952801111314718 0.11692255938693763
-0.9930042968111694 -0.09784135746628253 -0.06610246049664004
0.7268101259923722 0.1582937460764615 0.6683488091618275
0.4812307723817598 0.33410620541826946 0.8104258061129717
0.6466600301397469 0.6339880767225915 -0.4241343230549153
0.11398257722999387 -0.05157870515968384 0.9921429379187552
-0.716532359449529 0.5984416108086383 0.3583978464143629
0.44431414081716836 -0.6180769228592227 -0.6485104946712705
0.49759995759392905 0.8674039276676673 -0.0021699007406543735
0.8248847076320324 -0.3444702928418112 -0.44822476110127285
-0.8767688121934104 -0.45126139470635296 -0.16625162739845067
-0.46181048672313474 0.2763689873187877 0.8428233843462871
0.20055710756691597 -0.2266865416669075 0.953094989196507
-0.3838560119695397 0.25966445128499577 0.8861314433049436
0.9709924817388511 0.06561028420723404 0.22993236182163002
0.5096391125924756 -0.21726203326456647 0.8325053656389851
0.26035231672274667 -0.15124035502018596 0.9535947914027565
0.5533022407232222 -0.4187169262019725 -0.7200921927938349
0.6258117709624215 -0.6789114209612392 0.38397774650787886
-0.6687597476686107 0.3039507531906868 -0.6785089089562719
0.04609270359245089 0.02259660863917551 0.9986815588332181
-0.8440529921901522 -0.039785577549232475 -0.5347818753416433
0.012241862455871484 -0.2912836827823497 0.9565583897224272
0.5954123338710526 0.14466681060170652 -0.7902883439508368
0.6580710444452651 0.38721183369975076 0.6457627244627817
0.598239307890936 0.7011016585996092 0.3880286004962148
-0.7397554523670025 0.611876814124478 -0.2799439855224086
0.9561421624839529 -0.2583374131349694 -0.1380360318729945
-0.49762687245506115 0.7944938623010096 -0.34806177408129546
0.6351352084683275 -0.5208979908172888 0.5703231979556904
0.35024910406589427 -0.43596191361164993 0.8290131331776998
0.2775339298792118 -0.9185493824029182 0.28149946687874583
0.552046106313325 -0.4544022688429274 0.6991163526729274
0.21002542535907207 0.3385652962280267 0.9172038273430663
0.3946045297546433 -0.48594446002912267 -0.7798366796093406
0.2555003549443143 0.5603258000150526 0.7878797918850442
-0.8456446589735288 -0.5301208152543266 -0.06210500771783356
0.48197152324018333 0.7274396300645455 0.48840048668801983
-0.7412249914130811 -0.6275341375977143 0.23829901018294453
-0.15888543416837386 -0.8836287631411996 0.4404039370381252
0.33209922915767437 -0.8422090912335799 0.4247280878825721
0.8976587843118162 -0.28661927304587687 -0.3347508017413632
-0.770306636050337 0.6066290386910939 -0.19654235134833664
0.5911208811948082 0.25529157563219135 0.7651158835279179
0.8517901556546494 -0.5190480224674185 -0.07101183776308151
-0.9672066856380211 -0.190293150676166 0.16822527771667417
-0.3101074656800976 -0.9452359974976066 -0.10179522957472953
-0.9406054158156738 -0.12289872445486885 0.31647646873913016
0.2870632442704497 0.05365516321482587 0.9564077672464368
0.3055571717643348 -0.26504212571382957 0.9145422277732589
0.7187565495999116 -0.597402461421264 -0.355667431029389
0.7017534109508765 -0.6172394478306865 0.35574937000714346
0.6930622901023454 0.7117243836574774 0.11451228643895206
-0.2537384234785814 -0.9618390254684509 0.10238408829747336
0.29662800975692344 0.11937672518863222 -0.9475025178388099
-0.4492459270725409 0.7113308227979698 0.5405428359957207
-0.5273349825658982 -0.13269994184678502 -0.8392309226881978
-0.7383341457859012 -0.5587822607850582 0.37765735025091574
0.31835492869884424 -0.4396435914523598 0.8398593048052896
-0.35812980865642396 -0.9336708944909602 -0.0013041979004131399
0.582736552871596 -0.8080401897103677 -0.08653994314859803
-0.8787130219881959 -0.18389878335946386 0.44050500844744245
0.4291762962736082 0.09121882740007854 -0.8986027110156205
-0.7282595600438123 0.11049145215727575 0.6763354583377759
-0.44507489277777434 -0.64955944640238 0.6164258798982132
0.117927743142678 -0.2396475363776242 0.9636711605653714
-0.8768365151550024 -0.4037232683384974 -0.26108475308396084
0.9662472327126778 0.19748287552079752 0.1654291363428151
-0.35811921621014703 0.8764158332593348 0.321940855116861
0.5139035056788331 0.3193117952958316 0.7962054786523127
-0.883899388783362 -0.082656716617532 -0.46031482455642037
0.8007467743991864 0.5965244763929816 0.05443484502942675
0.5172067689056731 0.4137888313875587 0.7491835297289124
0.4269343463969868 -0.1970578251260433 -0.8825504390249723
-0.4503812921630109 -0.7649322874434115 -0.4604728952893611
-0.4391178682740047 -0.732920883137728 -0.5196176255893432
0.18704104138696345 0.9302240396021689 -0.31575130242503
-0.7412404948561199 0.6330307560608986 -0.22323662483208606
-0.9643685685257382 -0.15208143472332342 0.2164821037686815
-0.33123339283651076 0.4912888836241026 -0.8055555054106431
-0.7329540696188481 -0.2836143643379964 0.6183374678687383
0.9006611400355226 0.25803317892082056 -0.34961176954720585
-0.07988117555525696 0.9936955817254013 0.07866440523722651
-0.7646595806428554 -0.32730821085080547 -0.5551261665970513
0.4966976522696611 -0.8678615976707733 -0.010377356028376417
-0.8718099231281605 0.221226276855952 -0.43704278093079685
-0.5534942181952379 0.7218344290582365 0.4154506077148188
0.9921806634626857 0.04686990208320768 0.1156751629757029
0.12098987804709681 -0.3609469653009118 0.9247046759102124
-0.4770049676840006 0.816422340452786 -0.32545479381072373
-0.9554221001622869 0.22606723398647666 0.18990054301973092
-0.3980006275748054 -0.4965686037279484 0.771372233258196
0.5158021402658095 0.7284212614057137 0.45094414069740285
0.8102671820846222 -0.050551300917606984 0.5838764078229084
-0.6454608860605794 -0.18236932068790337 0.7417018777364153
-0.1766491544869596 -0.7174788427694623 -0.6738094585246155
0.6776042802430835 0.6882980199736709 -0.25903334746047024
0.6020635665823415 0.6842357897875552 -0.41151044429996086
-0.4867545502855524 0.12297507185154445 0.864839372068257
-0.419924264290314 -0.8788327781722622 0.22653158779795346
0.9702812493799603 0.030527386627473622 -0.240046611655653
-0.23311795693878393 -0.38103767144723977 -0.8946878288491202
-0.44339139397792826 0.11328066193092444 0.889140913117151
-0.5319496063607221 0.014443689804027677 0.8466528191162643
0.9335602554097762 0.03428904930234517 -0.35677655558791255
0.056722444786583996 0.9380435718900519 -0.34184327036404527
-0.22122895482259872 0.7262068274402985 0.6509081297135542
0.5295293803494014 -0.17298955822675935 -0.8304656814650979
-0.3860432732086443 -0.02696032800705667 -0.9220866184497571
0.8509927494439706 0.38555715848626404 0.3565908270466156
0.19526694286017793 0.9798927033711794 -0.041001352489421494
-0.44668986665389326 -0.34625172179995095 -0.8249714590089141
-0.24281488034467646 0.969627337591298 0.02938979548774112
-0.9113032762316846 -0.2836035188060515 0.2984884970149162
0.5357816398506153 -0.7987198289435169 0.2738332873326845
-0.9135357759091691 0.32797924834338665 0.2405867801649526
0.39104605219980965 -0.22879264021073098 -0.8914801808477555
-0.9200647354702662 0.39118300629076025 0.021371432646219102
0.11857238910223318 -0.7643066374203615 0.6338579908289936
-0.16455373335518456 -0.5571298969476198 0.8139584428986564
0.42646571739082634 -0.174839673554451 0.8874446914831937
0.0625219025359783 -0.15986192170577362 0.9851574380228871
-0.908849574170325 -0.190284199526287 -0.37119317739023594
0.9792765959651334 -0.1826545951024235 -0.08749084228026738
-0.049847761430373366 -0.3905569255388125 -0.9192282026755114
-0.3398303325147763 -0.7481180496505138 0.5699427417644758
-0.41587026536420707 0.39055056459433846 0.8212929921050998
-0.26679904085189804 -0.7374756137671411 -0.6204417707563585
0.3242822612483632 -0.18499273020245216 0.9276953728524742
[...]
POINT_DATA 10000
VECTORS vector float
0.6086733076301539 -0.7186391991790346 0
-0.07699130049673417 -0.6733851353662827 0
-0.7640376399962489 0.6330753650730518 0
-0.08184995573072573 -0.5089096529721373 0
-0.2587519491974602 -0.5576562942320394 0
0.0007910186995920156 -0.9232332165777296 0
0.7438800021112809 -0.6499879661125605 0
-0.9544909112164256 -0.22876422641235253 0
-0.4965728834028063 -0.061458262843020084 0
-0.2771308489480344 -0.3128071107562821 0
0.7993597617213691 0.5995975265174767 0
-0.3414503444707446 -0.7362965851735908 0
-0.7082860253809737 0.5608094435461906 0
-0.5109022782232405 -0.33202779678112904 0
0.9102715062753954 -0.014095123932854522 0
0.9916628447051797 -0.07556665871803107 0
0.9104312731231767 0.3800109091841519 0
0.11790493822710105 -0.2513430126904478 0
0.2600366575401616 -0.4144898149061048 0
0.21451404593986254 0.8856257882541307 0
0.2607862296311836 0.7448364221565458 0
0.08570951320045693 0.8650627411203125 0
-0.569123227165755 0.8064211578326665 0
-0.9065395717843503 -0.3911817272512126 0
-0.7304012176925327 0.5522525910377618 0
-0.7816334204140323 0.17983264768692392 0
-0.31791454335598734 0.9090475201185909 0
0.5868187575085648 0.38336683862630605 0
-0.7515854057159778 0.43199326040383407 0
0.7977945753627201 -0.45214407087762826 0
-0.08476230428537591 -0.7491728254287318 0
-0.23779188622588968 -0.8247274302611175 0
0.9547928035069126 0.2972663124615184 0
-0.08567928561736825 0.14919977880938476 0
-0.6460635250921665 -0.393414969416678 0
0.6424464400271687 -0.6822375059197611 0
-0.25584059796553094 0.05626807564515354 0
0.21557957848051726 -0.613025831809331 0
-0.6952801111314718 -0.709164777870007 0
-0.09784135746628253 0.9930042968111694 0
0.1582937460764615 -0.7268101259923722 0
0.33410620541826946 -0.4812307723817598 0
0.6339880767225915 -0.6466600301397469 0
-0.05157870515968384 -0.11398257722999387 0
0.5984416108086383 0.716532359449529 0
-0.6180769228592227 -0.44431414081716836 0
0.8674039276676673 -0.49759995759392905 0
-0.3444702928418112 -0.8248847076320324 0
-0.45126139470635296 0.8767688121934104 0
0.2763689873187877 0.46181048672313474 0
-0.2266865416669075 -0.20055710756691597 0
0.25966445128499577 0.3838560119695397 0
0.06561028420723404 -0.9709924817388511 0
-0.21726203326456647 -0.5096391125924756 0
-0.15124035502018596 -0.26035231672274667 0
-0.4187169262019725 -0.5533022407232222 0
-0.6789114209612392 -0.6258117709624215 0
0.3039507531906868 0.6687597476686107 0
0.02259660863917551 -0.04609270359245089 0
-0.039785577549232475 0.8440529921901522 0
-0.2912836827823497 -0.012241862455871484 0
0.14466681060170652 -0.5954123338710526 0
0.38721183369975076 -0.6580710444452651 0
0.7011016585996092 -0.598239307890936 0
0.611876814124478 0.7397554523670025 0
-0.2583374131349694 -0.9561421624839529 0
0.7944938623010096 0.49762687245506115 0
-0.5208979908172888 -0.6351352084683275 0
-0.43596191361164993 -0.35024910406589427 0
-0.9185493824029182 -0.2775339298792118 0
-0.4544022688429274 -0.552046106313325 0
0.3385652962280267 -0.21002542535907207 0
-0.48594446002912267 -0.3946045297546433 0
0.5603258000150526 -0.2555003549443143 0
-0.5301208152543266 0.8456446589735288 0
0.7274396300645455 -0.48197152324018333 0
-0.6275341375977143 0.7412249914130811 0
-0.8836287631411996 0.15888543416837386 0
-0.8422090912335799 -0.33209922915767437 0
-0.28661927304587687 -0.8976587843118162 0
0.6066290386910939 0.770306636050337 0
0.25529157563219135 -0.5911208811948082 0
-0.5190480224674185 -0.8517901556546494 0
-0.190293150676166 0.9672066856380211 0
-0.9452359974976066 0.3101074656800976 0
-0.12289872445486885 0.9406054158156738 0
0.05365516321482587 -0.2870632442704497 0
-0.26504212571382957 -0.3055571717643348 0
-0.597402461421264 -0.7187565495999116 0
-0.6172394478306865 -0.7017534109508765 0
0.7117243836574774 -0.6930622901023454 0
-0.9618390254684509 0.2537384234785814 0
0.11937672518863222 -0.29662800975692344 0
0.7113308227979698 0.4492459270725409 0
-0.13269994184678502 0.5273349825658982 0
-0.5587822607850582 0.7383341457859012 0
-0.4396435914523598 -0.31835492869884424 0
-0.9336708944909602 0.35812980865642396 0
-0.8080401897103677 -0.582736552871596 0
-0.18389878335946386 0.8787130219881959 0
0.09121882740007854 -0.4291762962736082 0
0.11049145215727575 0.7282595600438123 0
-0.64955944640238 0.44507489277777434 0
-0.2396475363776242 -0.117927743142678 0
-0.4037232683384974 0.8768365151550024 0
0.19748287552079752 -0.9662472327126778 0
0.8764158332593348 0.35811921621014703 0
0.3193117952958316 -0.5139035056788331 0
-0.082656716617532 0.883899388783362 0
0.5965244763929816 -0.8007467743991864 0
0.4137888313875587 -0.5172067689056731 0
-0.1970578251260433 -0.4269343463969868 0
-0.7649322874434115 0.4503812921630109 0
-0.732920883137728 0.4391178682740047 0
0.9302240396021689 -0.18704104138696345 0
0.6330307560608986 0.7412404948561199 0
-0.15208143472332342 0.9643685685257382 0
0.4912888836241026 0.33123339283651076 0
-0.2836143643379964 0.7329540696188481 0
0.25803317892082056 -0.9006611400355226 0
0.9936955817254013 0.07988117555525696 0
-0.32730821085080547 0.7646595806428554 0
-0.8678615976707733 -0.4966976522696611 0
0.221226276855952 0.8718099231281605 0
0.7218344290582365 0.5534942181952379 0
0.04686990208320768 -0.9921806634626857 0
-0.3609469653009118 -0.12098987804709681 0
0.816422340452786 0.4770049676840006 0
0.22606723398647666 0.9554221001622869 0
-0.4965686037279484 0.3980006275748054 0
0.7284212614057137 -0.5158021402658095 0
-0.050551300917606984 -0.8102671820846222 0
-0.18236932068790337 0.6454608860605794 0
-0.7174788427694623 0.1766491544869596 0
0.6882980199736709 -0.6776042802430835 0
0.6842357897875552 -0.6020635665823415 0
0.12297507185154445 0.4867545502855524 0
-0.8788327781722622 0.419924264290314 0
0.030527386627473622 -0.9702812493799603 0
-0.38103767144723977 0.23311795693878393 0
0.11328066193092444 0.44339139397792826 0
0.014443689804027677 0.5319496063607221 0
0.03428904930234517 -0.9335602554097762 0
0.9380435718900519 -0.056722444786583996 0
0.7262068274402985 0.22122895482259872 0
-0.17298955822675935 -0.5295293803494014 0
-0.02696032800705667 0.3860432732086443 0
0.38555715848626404 -0.8509927494439706 0
0.9798927033711794 -0.19526694286017793 0
-0.34625172179995095 0.44668986665389326 0
0.969627337591298 0.24281488034467646 0
-0.2836035188060515 0.9113032762316846 0
-0.7987198289435169 -0.5357816398506153 0
0.32797924834338665 0.9135357759091691 0
-0.22879264021073098 -0.39104605219980965 0
0.39118300629076025 0.9200647354702662 0
-0.7643066374203615 -0.11857238910223318 0
-0.5571298969476198 0.16455373335518456 0
-0.174839673554451 -0.42646571739082634 0
-0.15986192170577362 -0.0625219025359783 0
-0.190284199526287 0.908849574170325 0
-0.1826545951024235 -0.9792765959651334 0
-0.3905569255388125 0.049847761430373366 0
-0.7481180496505138 0.3398303325147763 0
0.39055056459433846 0.41587026536420707 0
-0.7374756137671411 0.26679904085189804 0
-0.18499273020245216 -0.3242822612483632 0
0.13056582113731813 0.057431177701298054 0
-0.42362263065040984 0.8234862722149465 0
-0.07756748052191641 -0.00538845120080494 0
-0.8090371248444361 0.0833579832611942 0
0.2835951487646492 0.08348437802991109 0
-0.9288482939756941 0.368413601284442 0
-0.2637813140106193 -0.9482333879061454 0
0.8386259573767724 -0.30446254118407995 0
-0.5544425269072165 -0.6230182688111721 0
0.341163754227455 0.36284896247013004 0
0.6429443501534501 0.31451743122111336 0
-0.16303334156326688 -0.14310348271994017 0
0.799103593777081 0.29637708497762416 0
-0.7620417404208408 0.5899482819837341 0
-0.5491222240177838 0.27719019097952785 0
-0.3348545368105725 0.9113897688569557 0
0.018766511548302157 -0.8034352183772486 0
0.5848764523857848 -0.7319601263995845 0
-0.3901086472208439 -0.6370478397143073 0
-0.7373516053513576 -0.4880114699973411 0
0.8178427591802838 0.30168863461730644 0
-0.9329384374972556 -0.10209634414898248 0
0.24504351154293225 -0.8897783880036488 0
0.6840190771257528 -0.015926667070421924 0
0.7601718891868207 0.3809658873002955 0
-0.4540638040289829 -0.18939396370368466 0
-0.8387268586342883 0.31820377336263395 0
-0.18999380983577457 0.9548484586722368 0
0.8216740263983034 -0.2245183711423831 0
-0.6466966830199232 -0.469134476694943 0
-0.27598161667516996 -0.7334774713404609 0
0.38127256156378503 0.1005143043890317 0
0.23178005567328017 0.5694140000517504 0
0.1158474061058616 0.9468271273959574 0
-0.6422902342591222 -0.6101943492430457 0
-0.2703370672458518 0.9053684853049753 0
-0.664277248004088 -0.6814962160901574 0
-0.44986184821273756 0.02480991338012292 0
0.9513634141918135 0.20413154285939097 0
-0.3167220157101408 -0.9448043048424233 0
-0.4599665636080735 -0.5232732448175197 0
0.3821547799373978 -0.40489982117627304 0
-0.3923171108087133 -0.8005135265767903 0
-0.6124662523713856 -0.0036571133563590165 0
0.5392311904384441 0.11912327289128481 0
-0.13531013593028154 -0.04974063955149743 0
0.7176411807735951 0.043739034063695684 0
0.3579959909273201 0.743886104664568 0
0.5490539882679383 -0.22100131531044065 0
0.5495023057654891 -0.8261387626965283 0
0.6949938055454441 -0.2675732510739274 0
-0.6917152246742364 -0.012967148081729505 0
-0.28178928008791904 0.35860283038310586 0
0.4012182571189175 0.26218173900835823 0
0.9778927687691982 0.04944118687477246 0
0.00664931550941232 -0.601052680875236 0
-0.9285494289829124 -0.37115150020844667 0
-0.9011784532407779 0.3956629339472507 0
-0.7604218674231364 0.01931268902745702 0
0.20073787699553264 -0.8928954872250855 0
0.7688272235474081 0.6075955722568659 0
0.8345528739079853 -0.1794136086555991 0
0.3197230793073357 -0.09016032798417392 0
-0.12289395808105318 -0.8651341632083467 0
0.23869192856154767 -0.5181264799637236 0
-0.17589714185340627 -0.9786708453077418 0
-0.6743556344527536 -0.7049409123060633 0
0.9116756521680066 -0.3792655480053942 0
0.41914230096395805 0.6845360159503674 0
-0.8977514030191516 0.377218541388349 0
-0.0973934719515197 -0.5259114213863137 0
-0.7643364715359294 -0.09650528141670936 0
-0.6438114625487811 0.3024665869518096 0
0.5493542016997447 -0.2741588986629096 0
0.6072013118625648 -0.6925019472988846 0
-0.7917118201329107 -0.49740055260576 0
-0.7217486634126538 0.5982983087277396 0
-0.6194504458524233 -0.11850534024112563 0
-0.5725756198863134 -0.4481043321718937 0
0.3239854937192006 0.1850506868057725 0
0.1265737146139183 -0.11618783532114779 0
0.6848595548108481 -0.37938131479780307 0
-0.16071032411817074 0.21504966473954118 0
-0.05353985062186592 0.12180538797916347 0
-0.5404410648890071 -0.3373417427431325 0
-0.6735166470450089 -0.6732160341040903 0
0.6874967286692354 0.4265843008403315 0
-0.6955921755797068 0.5403753454362835 0
-0.7454894218003599 0.42553413721590955 0
-0.521837262369044 -0.1585561137930209 0
-0.2727867267828373 -0.36653084665461094 0
0.5598855756249831 0.5563668905553157 0
-0.24615980344439492 0.7966507582901208 0
0.25470820854061244 -0.4262557549965828 0
-0.2623062798107555 -0.23684352015995525 0
0.980495907065609 0.04727576577594102 0
-0.5834610396325055 0.5718548529327473 0
0.554827774646815 0.6481900114536764 0
-0.16350674650134556 -0.7414317582790412 0
-0.7772995409091785 0.4936433739394994 0
0.9830241807783764 -0.18089038281117242 0
-0.11153492732308704 -0.564716566886947 0
0.34270494828064824 -0.9224500547698696 0
0.6594297353327796 -0.2735535581292415 0
0.9206799397278165 -0.3446331226493757 0
-0.6691347021338161 -0.046718291736045234 0
0.5626460205767503 -0.023551941510797054 0
-0.4151668206604646 0.731836691541946 0
0.32548663092916136 -0.22596047182898288 0
-0.3014674007409814 0.9075091123911945 0
0.04209530918137069 -0.8077897165627361 0
0.3638118580732902 0.12332429870346874 0
0.3634276221638878 -0.8901366489952353 0
0.6230948754316992 0.6765382026300214 0
0.9148295825447862 -0.35387712346878697 0
0.8518806226472838 -0.5051910896297569 0
0.025352910168436254 -0.057663256950064495 0
-0.8608238488798838 0.47448623617569086 0
-0.41428705464079246 -0.7139231614099022 0
0.9769586188151663 0.19417408226786717 0
-0.48032527502278893 0.6056805490643812 0
-0.5009781558215433 0.8608472266659422 0
-0.5448681137212286 -0.7807322516992329 0
-0.2562179579649885 -0.2464715649492516 0
0.05323894111162018 -0.9571166813459294 0
-0.8853898467989049 -0.22791994199289242 0
0.4492588047803789 0.6733212333850904 0
0.7194038236004503 -0.2288010970894572 0
-0.5703786174563434 0.7821447852762886 0
-0.5935660893566994 -0.7980175256219684 0
0.2321814756864471 -0.9095705041271688 0
0.7221965176911791 -0.4141230700833295 0
0.4413233591275071 -0.8919347133281563 0
0.8898487001505075 0.3754199478276276 0
0.21831693934895996 -0.7267970056114892 0
0.6098492526781168 0.6776187433308221 0
-0.7600723928027228 0.23478602090346148 0
-0.02905637651282729 -0.9188401114696111 0
-0.4986970442738712 -0.1672570137030514 0
-0.9744259957596707 -0.10040906149374641 0
0.734116035209031 0.631912430794828 0
0.9438287798513932 0.3013116895341541 0
-0.3412997580546979 -0.9225036500187921 0
0.17272681935149678 -0.003612174840101358 0
0.5926771926112347 0.7624454898466626 0
0.6605626401817409 -0.6896826734102348 0
0.05925201799188118 0.9505370954613375 0
-0.8223167488099171 0.10247818493116971 0
0.010854614098441077 -0.5559267110682524 0
-0.3821348836300649 -0.9114670622875596 0
-0.08107114903394365 -0.4309767761862768 0
-0.41607839986273076 0.8590960074644366 0
-0.4839650167315488 -0.17073372651110494 0
0.15275489620029095 0.908739452716889 0
-0.48530943063188353 0.5816947368699981 0
0.4686394814766857 0.6180454874728792 0
0.05782520230661276 0.9446116933913525 0
-0.07180252357021634 0.5534875231174339 0
-0.7650275579503176 -0.5921438371568701 0
0.8015971945445092 -0.4911022957709829 0
-0.2652126162522845 0.243239898339388 0
0.5508071031110116 -0.4341047719804142 0
-0.9180984581394726 -0.033853136323358984 0
0.6927196007842626 0.3750249802525209 0
0.3029374006806486 -0.46781842794858014 0
0.34274858641547357 -0.03331285887098411 0
0.13239244230978223 0.9712504626970321 0
-0.024018464245733725 0.500140523933828 0
-0.28555848475602696 0.8928113016931537 0
-0.8019439113227228 0.2710580470253374 0
-0.21163148455857136 0.9018360379625479 0
0.6421956182027311 0.3672372503117747 0
0.6926835393742968 0.48852756986554347 0
0.1127247177851373 -0.39597346043031817 0
0.7711724602312667 -0.6009957595660729 0
-0.8727383012223792 -0.3858777658165395 0
0.34686890838671697 0.5794437888483362 0
-0.008711058446127164 -0.7760296606928944 0
-0.6693744824004623 0.7104875213065357 0
-0.4359259450039525 0.8465338718158091 0
-0.18401358362996392 -0.9516347051448826 0
0.9106322725005319 -0.4055141360821635 0
-0.607677252439046 -0.6671126038252679 0
0.4260240121628697 -0.684588164959911 0
-0.05096904048415441 0.4780332026607678 0
-0.8590705522941643 0.5068224804752912 0
-0.5229701102039966 0.5302266535448633 0
0.15810047583394057 -0.8032898047518765 0
-0.5161445897667857 0.819388129497276 0
-0.09554799980907779 0.0931234305004726 0
0.5010623347879838 0.0529117273142496 0
-0.7597218545896623 0.5738468129813623 0
0.8401503670049213 0.17572657441663697 0
0.15117591853384044 -0.6345071127183454 0
-0.4073348109947204 -0.9108239377303243 0
-0.865402818912435 0.4699900545780075 0
-0.9951043288865066 0.010098501852772916 0
0.05445297850671752 -0.4357353346066914 0
-0.9617857463775636 -0.06903617362847327 0
0.508239631913528 -0.607304368760879 0
-0.8015068191947035 0.07543821079384233 0
-0.3057347916952435 0.9047131302446775 0
0.3054827517296663 0.20793993122706442 0
0.9532956770770128 0.18682534054081718 0
-0.23421409736032645 0.3586883388526588 0
-0.9110307506822192 -0.4114664905083408 0
-0.5480718334829239 0.7956647130087878 0
0.05044262623491505 -0.8518557808132338 0
-0.8372496935946984 0.5180896435846626 0
-0.4586289391387725 0.2997354046176817 0
-0.5987178020739365 0.47213078181899787 0
0.11232353854536917 -0.6305564733998795 0
0.6127028237513036 -0.601809429159661 0
0.8562157585048357 -0.51661355388261 0
-0.8658247314676567 0.3463471090024791 0
0.5467059781913239 0.28479050936555544 0
-0.40947148277980755 0.20414370980375518 0
-0.8774486925388831 0.4332337997270095 0
0.025143118827820617 0.9703380370888501 0
-0.6121550255668176 0.7572270903202525 0
-0.4646803077141776 0.15467985553588187 0
-0.7574311014260647 0.4749490588629797 0
-0.05726511481274319 -0.02237804148163466 0
-0.3954905808668724 0.09813686260527775 0
-0.7132840809805746 0.2505283617187343 0
0.20002885531153952 -0.9309784709028778 0
-0.8814233959336575 -0.4512628769347988 0
-0.0017414123843183494 -0.8952917603954121 0
0.6067852370546784 -0.7334991491594132 0
-0.17070416286555684 -0.4581260016099582 0
0.4815882087903759 -0.011186737016309662 0
0.27930535710120175 -0.9573478424208375 0
-0.758012022836031 0.16694057324471054 0
-0.7904872418678386 0.6090232666072186 0
-0.13050201203901135 -0.538722501058088 0
0.23680082895882995 0.24121746093833246 0
0.2567968810426957 -0.9530112410654745 0
-0.7057453105811005 0.38718447548647256 0
-0.6469767545066886 0.7572470731343396 0
0.8958196625856811 -0.08051871150783951 0
-0.7923537236053113 -0.6065176725305127 0
-0.6375912720088063 -0.6369949429018176 0
-0.40976603029846664 0.3428442620491577 0
0.6149184772581006 0.18660502723379613 0
0.9710452287822664 -0.11136317398623659 0
0.682774185786706 0.11859595960123277 0
-0.7263092278015586 -0.6163931970014733 0
0.39180200774191193 -0.2627270053032852 0
0.08680087378811276 -0.9504456296847908 0
-0.055138774526721335 0.22178036138586893 0
-0.616591889650924 -0.7406015820524676 0
-0.5695037042892627 0.5334073181158083 0
0.5233978693306004 -0.2950673676252928 0
-0.40446351127982966 -0.5200954450111989 0
0.24700241000037382 0.42116857688881065 0
0.48814076549377783 -0.40363588633883274 0
0.6088573401696932 -0.17398039030575424 0
-0.6757197625474997 0.6420155303669166 0
-0.6795722965228436 -0.6997534423903621 0
0.70839375737349 -0.6879539849797481 0
-0.5798491016090137 -0.19694368445585334 0
0.9255053147664754 -0.31605174254642604 0
-0.832682853522338 -0.11775727538720712 0
0.008850691628113238 -0.8659344583714733 0
-0.511530016824947 -0.8529754419124091 0
0.42993748052750125 0.8227871609400911 0
-0.3285339933399478 -0.06615159804008747 0
0.6926690195430066 0.08123365351683973 0
0.12340360931384307 0.5169878936022686 0
0.4353672433672431 -0.8760865130082713 0
-0.6943527157676843 0.7191516778686501 0
0.5805124232188498 -0.12384424124658501 0
-0.6261954600315369 -0.07914330722465102 0
0.9904196013873025 0.03902811296328607 0
0.22630661695070908 -0.9012145533531696 0
-0.020439343994499915 0.9320633011980397 0
0.3350472048705202 0.4436850378895635 0
-0.6604266784423748 -0.08161377615291057 0
0.16077534947310274 -0.3910002398068336 0
-0.8117247777572861 0.5815625165284389 0
0.6486409279815677 0.024123574632560405 0
0.48421474545449916 -0.6786731656807616 0
0.01888194528349883 -0.49037578538001975 0
-0.5108823902699493 0.8588212713009651 0
-0.07559338531568408 -0.7670175343892041 0
0.29743716929417335 0.829274005795908 0
-0.4983175375023229 -0.792178719615414 0
0.9095511289069425 -0.38562050632858835 0
-0.2961117923430285 -0.6772793150062711 0
-0.467369167075153 -0.8644672270131917 0
0.0373290756310761 -0.9630160157135914 0
0.9491292841725439 0.29662333041572336 0
-0.7410271691814097 -0.27746837596322965 0
-0.19689219258326326 0.980306504198945 0
0.4634824512354563 0.13289027774176376 0
-0.6683474899772126 0.5532709844292264 0
0.7230460735679745 -0.6849442234538154 0
0.7646688768701544 -0.5364188513563366 0
-0.9229565832530969 0.31877130029632234 0
0.9656044608494845 0.1808477840359062 0
-0.03563150861965536 -0.6111878959523604 0
-0.5841388857035901 0.17628887589182904 0
0.6057601215807848 0.6807600952516936 0
0.7162899250455096 -0.6146200083466011 0
-0.446719786173267 -0.12321477858754448 0
0.8764083901879622 -0.19124963076872156 0
-0.021163026371206872 0.2860012648654828 0
0.4504675012953128 -0.8161575077461704 0
-0.6907704486932015 -0.5512025361628697 0
0.9809828625461746 -0.18504136017874617 0
0.6615053904428246 0.4591950810899262 0
0.84786097036169 -0.2210376974343744 0