# vtk DataFile Version 1.0
Wavefunction
ASCII
DATASET STRUCTURED_POINTS
DIMENSIONS 21 21 21
ORIGIN 0.0 0.0 0.0
ASPECT_RATIO 1.0 1.0 1.0

POINT_DATA 9261
SCALARS scalars float
LOOKUP_TABLE default
0.0009797596903721136
0.0011020509211774956
0.0012036769584602206
0.0012702157905041772
0.0012866128363776643
0.0012393760883331792
0.0011192839655997917
0.0009240857179821862
0.0006604556018457528
0.0003444492323691934
-0.0
-0.0003444492323691934
-0.0006604556018457528
-0.0009240857179821862
-0.0011192839655997917
-0.0012393760883331792
-0.0012866128363776643
-0.0012702157905041772
-0.0012036769584602206
-0.0011020509211774956
-0.0009797596903721136
0.0012245010235305506
0.001387951807733658
0.0015274831649117625
0.0016238176968468338
0.0016562594396602318
0.001605649039239803
0.001458191556565981
0.0012094466897436401
0.0008673863044126881
0.00045333457982737227
-0.0
-0.00045333457982737227
-0.0008673863044126881
-0.0012094466897436401
-0.001458191556565981
-0.001605649039239803
-0.0016562594396602318
-0.0016238176968468338
-0.0015274831649117625
-0.001387951807733658
-0.0012245010235305506
0.0015045961980752756
0.0017184185605257326
0.0019054995009868663
0.002040658453933922
0.00209609356598772
0.002045244340930979
0.001868061759532749
0.0015567555804908166
0.0011204437450994243
0.0005868870800903307
-0.0
-0.0005868870800903307
-0.0011204437450994243
-0.0015567555804908166
-0.001868061759532749
-0.002045244340930979
-0.00209609356598772
-0.002040658453933922
-0.0019054995009868663
-0.0017184185605257326
-0.0015045961980752756
0.0018145939864345388
0.0020877656102316435
0.002332181090210197
0.0025157762983388397
0.0026021589132380644
0.0025554944185048824
0.0023475483203613226
0.001965723633131948
0.0014199059198717306
0.000745418629536983
-0.0
-0.000745418629536983
-0.0014199059198717306
-0.001965723633131948
-0.0023475483203613226
-0.0025554944185048824
-0.0026021589132380644
-0.0025157762983388397
-0.002332181090210197
-0.0020877656102316435
-0.0018145939864345388
0.0021443547272961072
0.002484389159490348
0.00279479142131696
0.0030358520654444085
0.0031612857753495214
0.003124196350397959
0.0028861786038502546
0.002428186404574293
0.001760245943774766
0.0009261586059310374
-0.0
-0.0009261586059310374
-0.001760245943774766
-0.002428186404574293
-0.0028861786038502546
-0.003124196350397959
-0.0031612857753495214
-0.0030358520654444085
-0.00279479142131696
-0.002484389159490348
-0.0021443547272961072
0.0024787521766663585
0.0028901682706316454
0.003272390945489567
0.003577692185906835
0.003749035620477551
0.0037270931476849145
0.0034615889310818794
0.0029254482404463575
0.0021280172760858055
0.0011220768761929845
-0.0
-0.0011220768761929845
-0.0021280172760858055
-0.0029254482404463575
-0.0034615889310818794
-0.0037270931476849145
-0.003749035620477551
-0.003577692185906835
-0.003272390945489567
-0.0028901682706316454
-0.0024787521766663585
0.0027982099139994793
0.003280931002273457
0.003736123519065498
0.004108209560632314
0.004329267905775381
0.004326986163852349
0.0040382621150340066
0.003426867298040082
0.002500615512340036
0.0013211580405391627
-0.0
-0.0013211580405391627
-0.002500615512340036
-0.003426867298040082
-0.0040382621150340066
-0.004326986163852349
-0.004329267905775381
-0.004108209560632314
-0.003736123519065498
-0.003280931002273457
-0.0027982099139994793
0.0030802857266072877
0.0036283400692309208
0.004151348214642177
0.004586688477307878
0.004856372809148586
0.004875747067410596
0.004569156397386777
0.003891015891552313
0.0028469807348667966
0.0015067195337122228
-0.0
-0.0015067195337122228
-0.0028469807348667966
-0.003891015891552313
-0.004569156397386777
-0.004875747067410596
-0.004856372809148586
-0.004586688477307878
-0.004151348214642177
-0.0036283400692309208
-0.0030802857266072877
0.0033022780092287637
0.0039032383698570966
0.004481774980397697
0.004969670719551057
0.005280737831324297
0.005320043190214513
0.005001231024680072
0.004270471102300195
0.003131134592179196
0.0016592901320355942
-0.0
-0.0016592901320355942
-0.003131134592179196
-0.004270471102300195
-0.005001231024680072
-0.005320043190214513
-0.005280737831324297
-0.004969670719551057
-0.004481774980397697
-0.0039032383698570966
-0.0033022780092287637
0.003444492323691934
0.00408001121844635
0.004695096640722645
0.00521793040675888
0.0055569516355862235
0.005610384380964922
0.005284632162156651
0.004520158601136668
0.0033185802640711883
0.0017600957494084682
-0.0
-0.0017600957494084682
-0.0033185802640711883
-0.004520158601136668
-0.005284632162156651
-0.005610384380964922
-0.0055569516355862235
-0.00521793040675888
-0.004695096640722645
-0.00408001121844635
-0.003444492323691934
0.0034934892766462
0.004141032465283174
0.004768884107104316
0.005303983217461735
0.005652896899529287
0.00571144549673347
0.005383467597493337
0.004607382328395259
0.0033841465775129517
0.0017953858149584322
-0.0
-0.0017953858149584322
-0.0033841465775129517
-0.004607382328395259
-0.005383467597493337
-0.00571144549673347
-0.005652896899529287
-0.005303983217461735
-0.004768884107104316
-0.004141032465283174
-0.0034934892766462
0.003444492323691934
0.00408001121844635
0.004695096640722645
0.00521793040675888
0.0055569516355862235
0.005610384380964922
0.005284632162156651
0.004520158601136668
0.0033185802640711883
0.0017600957494084682
-0.0
-0.0017600957494084682
-0.0033185802640711883
-0.004520158601136668
-0.005284632162156651
-0.005610384380964922
-0.0055569516355862235
-0.00521793040675888
-0.004695096640722645
-0.00408001121844635
-0.003444492323691934
0.0033022780092287637
0.0039032383698570966
0.004481774980397697
0.004969670719551057
0.005280737831324297
0.005320043190214513
0.005001231024680072
0.004270471102300195
0.003131134592179196
0.0016592901320355942
-0.0
-0.0016592901320355942
-0.003131134592179196
-0.004270471102300195
-0.005001231024680072
-0.005320043190214513
-0.005280737831324297
-0.004969670719551057
-0.004481774980397697
-0.0039032383698570966
-0.0033022780092287637
0.0030802857266072877
0.0036283400692309208
0.004151348214642177
0.004586688477307878
0.004856372809148586
0.004875747067410596
0.004569156397386777
0.003891015891552313
0.0028469807348667966
0.0015067195337122228
-0.0
-0.0015067195337122228
-0.0028469807348667966
-0.003891015891552313
-0.004569156397386777
-0.004875747067410596
-0.004856372809148586
-0.004586688477307878
-0.004151348214642177
-0.0036283400692309208
-0.0030802857266072877
0.0027982099139994793
0.003280931002273457
0.003736123519065498
0.004108209560632314
0.004329267905775381
0.004326986163852349
0.0040382621150340066
0.003426867298040082
0.002500615512340036
0.0013211580405391627
-0.0
-0.0013211580405391627
-0.002500615512340036
-0.003426867298040082
-0.0040382621150340066
-0.004326986163852349
-0.004329267905775381
-0.004108209560632314
-0.003736123519065498
-0.003280931002273457
-0.0027982099139994793
0.0024787521766663585
0.0028901682706316454
0.003272390945489567
0.003577692185906835
0.003749035620477551
0.0037270931476849145
0.0034615889310818794
0.0029254482404463575
0.0021280172760858055
0.0011220768761929845
-0.0
-0.0011220768761929845
-0.0021280172760858055
-0.0029254482404463575
-0.0034615889310818794
-0.0037270931476849145
-0.003749035620477551
-0.003577692185906835
-0.003272390945489567
-0.0028901682706316454
-0.0024787521766663585
0.0021443547272961072
0.002484389159490348
0.00279479142131696
0.0030358520654444085
0.0031612857753495214
0.003124196350397959
0.0028861786038502546
0.002428186404574293
0.001760245943774766
0.0009261586059310374
-0.0
-0.0009261586059310374
-0.001760245943774766
-0.002428186404574293
-0.0028861786038502546
-0.003124196350397959
-0.0031612857753495214
-0.0030358520654444085
-0.00279479142131696
-0.002484389159490348
-0.0021443547272961072
0.0018145939864345388
0.0020877656102316435
0.002332181090210197
0.0025157762983388397
0.0026021589132380644
0.0025554944185048824
0.0023475483203613226
0.001965723633131948
0.0014199059198717306
0.000745418629536983
-0.0
-0.000745418629536983
-0.0014199059198717306
-0.001965723633131948
-0.0023475483203613226
-0.0025554944185048824
-0.0026021589132380644
-0.0025157762983388397
-0.002332181090210197
-0.0020877656102316435
-0.0018145939864345388
0.0015045961980752756
0.0017184185605257326
0.0019054995009868663
0.002040658453933922
0.00209609356598772
0.002045244340930979
0.001868061759532749
0.0015567555804908166
0.0011204437450994243
0.0005868870800903307
-0.0
-0.0005868870800903307
-0.0011204437450994243
-0.0015567555804908166
-0.001868061759532749
-0.002045244340930979
-0.00209609356598772
-0.002040658453933922
-0.0019054995009868663
-0.0017184185605257326
-0.0015045961980752756
0.0012245010235305506
0.001387951807733658
0.0015274831649117625
0.0016238176968468338
0.0016562594396602318
0.001605649039239803
0.001458191556565981
0.0012094466897436401
0.0008673863044126881
0.00045333457982737227
-0.0
-0.00045333457982737227
-0.0008673863044126881
-0.0012094466897436401
-0.001458191556565981
-0.001605649039239803
-0.0016562594396602318
-0.0016238176968468338
-0.0015274831649117625
-0.001387951807733658
-0.0012245010235305506
0.0009797596903721136
0.0011020509211774956
0.0012036769584602206
0.0012702157905041772
0.0012866128363776643
0.0012393760883331792
0.0011192839655997917
0.0009240857179821862
0.0006604556018457528
0.0003444492323691934
-0.0
-0.0003444492323691934
-0.0006604556018457528
-0.0009240857179821862
-0.0011192839655997917
-0.0012393760883331792
-0.0012866128363776643
-0.0012702157905041772
-0.0012036769584602206
-0.0011020509211774956
-0.0009797596903721136
0.0011020509211774956
0.0012491566269602922
0.0013747348484205862
0.0014614359271621505
0.0014906334956942089
0.0014450841353158227
0.001312372400909383
0.0010885020207692753
0.0007806476739714195
0.0004080011218446351
-0.0
-0.0004080011218446351
-0.0007806476739714195
-0.0010885020207692753
-0.001312372400909383
-0.0014450841353158227
-0.0014906334956942089
-0.0014614359271621505
-0.0013747348484205862
-0.0012491566269602922
-0.0011020509211774956
0.001387951807733658
0.0015866919914068163
0.0017610895159247144
0.001887747276263011
0.001940741715861391
0.0018952103789604301
0.0017322799062972555
0.0014444710898141174
0.0010401005177860492
0.0005449569579963191
-0.0
-0.0005449569579963191
-0.0010401005177860492
-0.0014444710898141174
-0.0017322799062972555
-0.0018952103789604301
-0.001940741715861391
-0.001887747276263011
-0.0017610895159247144
-0.0015866919914068163
-0.001387951807733658
0.0017184185605257326
0.0019812257054153035
0.0022178057231572474
0.00239735131342646
0.0024846194791699043
0.002444610140811523
0.002249421372286529
0.001886177889101782
0.0013638813987758751
0.000716477296342159
-0.0
-0.000716477296342159
-0.0013638813987758751
-0.001886177889101782
-0.002249421372286529
-0.002444610140811523
-0.0024846194791699043
-0.00239735131342646
-0.0022178057231572474
-0.0019812257054153035
-0.0017184185605257326
0.0020877656102316435
0.0024271036409095853
0.0027398300724873832
0.0029864475040376334
0.0031203015533581477
0.0030934523839150903
0.002865909185368636
0.0024169139762865713
0.0017552689442678147
0.0009245948970120957
-0.0
-0.0009245948970120957
-0.0017552689442678147
-0.0024169139762865713
-0.002865909185368636
-0.0030934523839150903
-0.0031203015533581477
-0.0029864475040376334
-0.0027398300724873832
-0.0024271036409095853
-0.0020877656102316435
0.002484389159490348
0.0029111125737920863
0.0033128259722265394
0.003640351812251172
0.0038337459836536693
0.0038293591584498275
0.0035718333006773237
0.0030296075657210582
0.002209921182552319
0.0011673047674656933
-0.0
-0.0011673047674656933
-0.002209921182552319
-0.0030296075657210582
-0.0035718333006773237
-0.0038293591584498275
-0.0038337459836536693
-0.003640351812251172
-0.0033128259722265394
-0.0029111125737920863
-0.002484389159490348
0.0028901682706316454
0.003411378682128774
0.003911376225298436
0.0043308333374811265
0.004595230990139794
0.004622974485060478
0.004340370115630003
0.0037020985742502576
0.002712095160682001
0.0014364538858977346
-0.0
-0.0014364538858977346
-0.002712095160682001
-0.0037020985742502576
-0.004340370115630003
-0.004622974485060478
-0.004595230990139794
-0.0043308333374811265
-0.003911376225298436
-0.003411378682128774
-0.0028901682706316454
0.003280931002273457
0.003897629789168825
0.004498842744573058
0.005015341074395113
0.005357749951015986
0.005425462644537503
0.005124565322760229
0.004393692117236249
0.003231694466925178
0.00171602693217897
-0.0
-0.00171602693217897
-0.003231694466925178
-0.004393692117236249
-0.005124565322760229
-0.005425462644537503
-0.005357749951015986
-0.005015341074395113
-0.004498842744573058
-0.003897629789168825
-0.003280931002273457
0.0036283400692309177
0.0043334132694423525
0.005029807704271419
0.005639465944668665
0.0060592151314421165
0.006170164290417096
0.005858256156314999
0.005045376152908296
0.0037240543914368305
0.001981893824635787
-0.0
-0.001981893824635787
-0.0037240543914368305
-0.005045376152908296
-0.005858256156314999
-0.006170164290417096
-0.0060592151314421165
-0.005639465944668665
-0.005029807704271419
-0.0043334132694423525
-0.0036283400692309177
0.0039032383698570966
0.004680452330037221
0.0054555255951035005
0.006143441304937351
0.006629763547656956
0.006780237901705002
0.006463388933850356
0.005586081587155245
0.0041344917140051065
0.002204194799982425
-0.0
-0.002204194799982425
-0.0041344917140051065
-0.005586081587155245
-0.006463388933850356
-0.006780237901705002
-0.006629763547656956
-0.006143441304937351
-0.0054555255951035005
-0.004680452330037221
-0.0039032383698570966
0.00408001121844635
0.004904612621966871
0.005731818370737272
0.006472164279084669
0.0070038286047941585
0.007182269429488672
0.00686410772871588
0.005945681473907361
0.00440838959996485
0.002352870891908166
-0.0
-0.002352870891908166
-0.00440838959996485
-0.005945681473907361
-0.00686410772871588
-0.007182269429488672
-0.0070038286047941585
-0.006472164279084669
-0.005731818370737272
-0.004904612621966871
-0.00408001121844635
0.004141032465283174
0.004982169422184362
0.005827647370978304
0.006586473781180074
0.007134253418911479
0.007322820195393748
0.007004556814274038
0.006072004412542164
0.004504780057361141
0.0024052542496380857
-0.0
-0.0024052542496380857
-0.004504780057361141
-0.006072004412542164
-0.007004556814274038
-0.007322820195393748
-0.007134253418911479
-0.006586473781180074
-0.005827647370978304
-0.004982169422184362
-0.004141032465283174
0.00408001121844635
0.004904612621966871
0.005731818370737272
0.006472164279084669
0.0070038286047941585
0.007182269429488672
0.00686410772871588
0.005945681473907361
0.00440838959996485
0.002352870891908166
-0.0
-0.002352870891908166
-0.00440838959996485
-0.005945681473907361
-0.00686410772871588
-0.007182269429488672
-0.0070038286047941585
-0.006472164279084669
-0.005731818370737272
-0.004904612621966871
-0.00408001121844635
0.0039032383698570966
0.004680452330037221
0.0054555255951035005
0.006143441304937351
0.006629763547656956
0.006780237901705002
0.006463388933850356
0.005586081587155245
0.0041344917140051065
0.002204194799982425
-0.0
-0.002204194799982425
-0.0041344917140051065
-0.005586081587155245
-0.006463388933850356
-0.006780237901705002
-0.006629763547656956
-0.006143441304937351
-0.0054555255951035005
-0.004680452330037221
-0.0039032383698570966
0.0036283400692309177
0.0043334132694423525
0.005029807704271419
0.005639465944668665
0.0060592151314421165
0.006170164290417096
0.005858256156314999
0.005045376152908296
0.0037240543914368305
0.001981893824635787
-0.0
-0.001981893824635787
-0.0037240543914368305
-0.005045376152908296
-0.005858256156314999
-0.006170164290417096
-0.0060592151314421165
-0.005639465944668665
-0.005029807704271419
-0.0043334132694423525
-0.0036283400692309177
0.003280931002273457
0.003897629789168825
0.004498842744573058
0.005015341074395113
0.005357749951015986
0.005425462644537503
0.005124565322760229
0.004393692117236249
0.003231694466925178
0.00171602693217897
-0.0
-0.00171602693217897
-0.003231694466925178
-0.004393692117236249
-0.005124565322760229
-0.005425462644537503
-0.005357749951015986
-0.005015341074395113
-0.004498842744573058
-0.003897629789168825
-0.003280931002273457
0.0028901682706316454
0.003411378682128774
0.003911376225298436
0.0043308333374811265
0.004595230990139794
0.004622974485060478
0.004340370115630003
0.0037020985742502576
0.002712095160682001
0.0014364538858977346
-0.0
-0.0014364538858977346
-0.002712095160682001
-0.0037020985742502576
-0.004340370115630003
-0.004622974485060478
-0.004595230990139794
-0.0043308333374811265
-0.003911376225298436
-0.003411378682128774
-0.0028901682706316454
0.002484389159490348
0.0029111125737920863
0.0033128259722265394
0.003640351812251172
0.0038337459836536693
0.0038293591584498275
0.0035718333006773237
0.0030296075657210582
0.002209921182552319
0.0011673047674656933
-0.0
-0.0011673047674656933
-0.002209921182552319
-0.0030296075657210582
-0.0035718333006773237
-0.0038293591584498275
-0.0038337459836536693
-0.003640351812251172
-0.0033128259722265394
-0.0029111125737920863
-0.002484389159490348
0.0020877656102316435
0.0024271036409095853
0.0027398300724873832
0.0029864475040376334
0.0031203015533581477
0.0030934523839150903
0.002865909185368636
0.0024169139762865713
0.0017552689442678147
0.0009245948970120957
-0.0
-0.0009245948970120957
-0.0017552689442678147
-0.0024169139762865713
-0.002865909185368636
-0.0030934523839150903
-0.0031203015533581477
-0.0029864475040376334
-0.0027398300724873832
-0.0024271036409095853
-0.0020877656102316435
0.0017184185605257326
0.0019812257054153035
0.0022178057231572474
0.00239735131342646
0.0024846194791699043
0.002444610140811523
0.002249421372286529
0.001886177889101782
0.0013638813987758751
0.000716477296342159
-0.0
-0.000716477296342159
-0.0013638813987758751
-0.001886177889101782
-0.002249421372286529
-0.002444610140811523
-0.0024846194791699043
-0.00239735131342646
-0.0022178057231572474
-0.0019812257054153035
-0.0017184185605257326
0.001387951807733658
0.0015866919914068163
0.0017610895159247144
0.001887747276263011
0.001940741715861391
0.0018952103789604301
0.0017322799062972555
0.0014444710898141174
0.0010401005177860492
0.0005449569579963191
-0.0
-0.0005449569579963191
-0.0010401005177860492
-0.0014444710898141174
-0.0017322799062972555
-0.0018952103789604301
-0.001940741715861391
-0.001887747276263011
-0.0017610895159247144
-0.0015866919914068163
-0.001387951807733658
0.0011020509211774956
0.0012491566269602922
0.0013747348484205862
0.0014614359271621505
0.0014906334956942089
0.0014450841353158227
0.001312372400909383
0.0010885020207692753
0.0007806476739714195
0.0004080011218446351
-0.0
-0.0004080011218446351
-0.0007806476739714195
-0.0010885020207692753
-0.001312372400909383
-0.0014450841353158227
-0.0014906334956942089
-0.0014614359271621505
-0.0013747348484205862
-0.0012491566269602922
-0.0011020509211774956
0.0012036769584602206
0.0013747348484205862
0.0015243996007894933
0.0016325267631471375
0.001676874852790176
0.0016361954727447834
0.0014944494076261994
0.001245404464392652
0.0008963549960795395
0.0004695096640722646
-0.0
-0.0004695096640722646
-0.0008963549960795395
-0.001245404464392652
-0.0014944494076261994
-0.0016361954727447834
-0.001676874852790176
-0.0016325267631471375
-0.0015243996007894933
-0.0013747348484205862
-0.0012036769584602206
0.0015274831649117625
0.0017610895159247144
0.0019713828650286644
0.002130978945267964
0.002208550648151026
0.0021729867918324646
0.0019994856642546925
0.0016766025680904728
0.0012123390211341114
0.0006368687078596969
-0.0
-0.0006368687078596969
-0.0012123390211341114
-0.0016766025680904728
-0.0019994856642546925
-0.0021729867918324646
-0.002208550648151026
-0.002130978945267964
-0.0019713828650286644
-0.0017610895159247144
-0.0015274831649117625
0.0019054995009868663
0.0022178057231572474
0.002506545704970099
0.00273541430071912
0.0028613304642625893
0.0028398118397434586
0.002633519055686408
0.0022227806542344897
0.0016153048460136013
0.0008512069104343217
-0.0
-0.0008512069104343217
-0.0016153048460136013
-0.0022227806542344897
-0.002633519055686408
-0.0028398118397434586
-0.0028613304642625893
-0.00273541430071912
-0.002506545704970099
-0.0022178057231572474
-0.0019054995009868663
0.002332181090210197
0.0027398300724873832
0.003126187772250424
0.003444462810399065
0.003637017063402333
0.003641983669360597
0.003404827641737289
0.002893580077086668
0.002113852864862661
0.0011176131932349419
-0.0
-0.0011176131932349419
-0.002113852864862661
-0.002893580077086668
-0.003404827641737289
-0.003641983669360597
-0.003637017063402333
-0.003444462810399065
-0.003126187772250424
-0.0027398300724873832
-0.002332181090210197
0.00279479142131696
0.0033128259722265394
0.0038151072856834538
0.004243186573969388
0.004522317519623426
0.004569156397386777
0.00430677407799467
0.0036859058627162077
0.002707317262010362
0.0014363086519667448
-0.0
-0.0014363086519667448
-0.002707317262010362
-0.0036859058627162077
-0.00430677407799467
-0.004569156397386777
-0.004522317519623426
-0.004243186573969388
-0.0038151072856834538
-0.0033128259722265394
-0.00279479142131696
0.003272390945489567
0.003911376225298436
0.004543698943589534
0.005098777137104835
0.0054829876768641315
0.0055880659661747085
0.005309728422513902
0.0045760718191439195
0.003379451812993805
0.001799112418531011
-0.0
-0.001799112418531011
-0.003379451812993805
-0.0045760718191439195
-0.005309728422513902
-0.0055880659661747085
-0.0054829876768641315
-0.005098777137104835
-0.004543698943589534
-0.003911376225298436
-0.003272390945489567
0.003736123519065498
0.004498842744573058
0.005267038111372816
0.005958448373040255
0.006460161116992004
0.006637160528142377
0.006354335954349953
0.005512655618673474
0.004092324963450332
0.002185897795783404
-0.0
-0.002185897795783404
-0.004092324963450332
-0.005512655618673474
-0.006354335954349953
-0.006637160528142377
-0.006460161116992004
-0.005958448373040255
-0.005267038111372816
-0.004498842744573058
-0.003736123519065498
0.004151348214642174
0.005029807704271419
0.00592741507795864
0.0067516868465355585
0.007371811725432415
0.007626786365239866
0.007350207491564635
0.006414011332368227
0.004783574451647349
0.0025627900488568267
-0.0
-0.0025627900488568267
-0.004783574451647349
-0.006414011332368227
-0.007350207491564635
-0.007626786365239866
-0.007371811725432415
-0.0067516868465355585
-0.00592741507795864
-0.005029807704271419
-0.004151348214642174
0.004481774980397697
0.0054555255951035005
0.006461219384054405
0.00739848502701931
0.008121951786031084
0.008448629532484512
0.008184649926900664
0.007175361677471022
0.005371253273409034
0.002884573598355995
-0.0
-0.002884573598355995
-0.005371253273409034
-0.007175361677471022
-0.008184649926900664
-0.008448629532484512
-0.008121951786031084
-0.00739848502701931
-0.006461219384054405
-0.0054555255951035005
-0.004481774980397697
0.004695096640722645
0.005731818370737272
0.006809655283474573
0.00782329235264459
0.008617851911800466
0.008995562092655054
0.008743591183133616
0.007688370146570478
0.00576914719671199
0.0031031299791793704
-0.0
-0.0031031299791793704
-0.00576914719671199
-0.007688370146570478
-0.008743591183133616
-0.008995562092655054
-0.008617851911800466
-0.00782329235264459
-0.006809655283474573
-0.005731818370737272
-0.004695096640722645
0.004768884107104316
0.005827647370978304
0.006930866051568262
0.007971546057627022
0.008791506666592406
0.009187759364455792
0.008940685211179501
0.007869837586799079
0.005910256992018589
0.0031807707300133864
-0.0
-0.0031807707300133864
-0.005910256992018589
-0.007869837586799079
-0.008940685211179501
-0.009187759364455792
-0.008791506666592406
-0.007971546057627022
-0.006930866051568262
-0.005827647370978304
-0.004768884107104316
0.004695096640722645
0.005731818370737272
0.006809655283474573
0.00782329235264459
0.008617851911800466
0.008995562092655054
0.008743591183133616
0.007688370146570478
0.00576914719671199
0.0031031299791793704
-0.0
-0.0031031299791793704
-0.00576914719671199
-0.007688370146570478
-0.008743591183133616
-0.008995562092655054
-0.008617851911800466
-0.00782329235264459
-0.006809655283474573
-0.005731818370737272
-0.004695096640722645
0.004481774980397697
0.0054555255951035005
0.006461219384054405
0.00739848502701931
0.008121951786031084
0.008448629532484512
0.008184649926900664
0.007175361677471022
0.005371253273409034
0.002884573598355995
-0.0
-0.002884573598355995
-0.005371253273409034
-0.007175361677471022
-0.008184649926900664
-0.008448629532484512
-0.008121951786031084
-0.00739848502701931
-0.006461219384054405
-0.0054555255951035005
-0.004481774980397697
0.004151348214642174
0.005029807704271419
0.00592741507795864
0.0067516868465355585
0.007371811725432415
0.007626786365239866
0.007350207491564635
0.006414011332368227
0.004783574451647349
0.0025627900488568267
-0.0
-0.0025627900488568267
-0.004783574451647349
-0.006414011332368227
-0.007350207491564635
-0.007626786365239866
-0.007371811725432415
-0.0067516868465355585
-0.00592741507795864
-0.005029807704271419
-0.004151348214642174
0.003736123519065498
0.004498842744573058
0.005267038111372816
0.005958448373040255
0.006460161116992004
0.006637160528142377
0.006354335954349953
0.005512655618673474
0.004092324963450332
0.002185897795783404
-0.0
-0.002185897795783404
-0.004092324963450332
-0.005512655618673474
-0.006354335954349953
-0.006637160528142377
-0.006460161116992004
-0.005958448373040255
-0.005267038111372816
-0.004498842744573058
-0.003736123519065498
0.003272390945489567
0.003911376225298436
0.004543698943589534
0.005098777137104835
0.0054829876768641315
0.0055880659661747085
0.005309728422513902
0.0045760718191439195
0.003379451812993805
0.001799112418531011
-0.0
-0.001799112418531011
-0.003379451812993805
-0.0045760718191439195
-0.005309728422513902
-0.0055880659661747085
-0.0054829876768641315
-0.005098777137104835
-0.004543698943589534
-0.003911376225298436
-0.003272390945489567
0.00279479142131696
0.0033128259722265394
0.0038151072856834538
0.004243186573969388
0.004522317519623426
0.004569156397386777
0.00430677407799467
0.0036859058627162077
0.002707317262010362
0.0014363086519667448
-0.0
-0.0014363086519667448
-0.002707317262010362
-0.0036859058627162077
-0.00430677407799467
-0.004569156397386777
-0.004522317519623426
-0.004243186573969388
-0.0038151072856834538
-0.0033128259722265394
-0.00279479142131696
0.002332181090210197
0.0027398300724873832
0.003126187772250424
0.003444462810399065
0.003637017063402333
0.003641983669360597
0.003404827641737289
0.002893580077086668
0.002113852864862661
0.0011176131932349419
-0.0
-0.0011176131932349419
-0.002113852864862661
-0.002893580077086668
-0.003404827641737289
-0.003641983669360597
-0.003637017063402333
-0.003444462810399065
-0.003126187772250424
-0.0027398300724873832
-0.002332181090210197
0.0019054995009868663
0.0022178057231572474
0.002506545704970099
0.00273541430071912
0.0028613304642625893
0.0028398118397434586
0.002633519055686408
0.0022227806542344897
0.0016153048460136013
0.0008512069104343217
-0.0
-0.0008512069104343217
-0.0016153048460136013
-0.0022227806542344897
-0.002633519055686408
-0.0028398118397434586
-0.0028613304642625893
-0.00273541430071912
-0.002506545704970099
-0.0022178057231572474
-0.0019054995009868663
0.0015274831649117625
0.0017610895159247144
0.0019713828650286644
0.002130978945267964
0.002208550648151026
0.0021729867918324646
0.0019994856642546925
0.0016766025680904728
0.0012123390211341114
0.0006368687078596969
-0.0
-0.0006368687078596969
-0.0012123390211341114
-0.0016766025680904728
-0.0019994856642546925
-0.0021729867918324646
-0.002208550648151026
-0.002130978945267964
-0.0019713828650286644
-0.0017610895159247144
-0.0015274831649117625
0.0012036769584602206
0.0013747348484205862
0.0015243996007894933
0.0016325267631471375
0.001676874852790176
0.0016361954727447834
0.0014944494076261994
0.001245404464392652
0.0008963549960795395
0.0004695096640722646
-0.0
-0.0004695096640722646
-0.0008963549960795395
-0.001245404464392652
-0.0014944494076261994
-0.0016361954727447834
-0.001676874852790176
-0.0016325267631471375
-0.0015243996007894933
-0.0013747348484205862
-0.0012036769584602206
0.0012702157905041772
0.0014614359271621505
0.0016325267631471375
0.0017610434088371877
0.001821511239266645
0.0017888460929534175
0.0016432838242529256
0.0013760065431923636
0.0009939341439102103
0.000521793040675888
-0.0
-0.000521793040675888
-0.0009939341439102103
-0.0013760065431923636
-0.0016432838242529256
-0.0017888460929534175
-0.001821511239266645
-0.0017610434088371877
-0.0016325267631471375
-0.0014614359271621505
-0.0012702157905041772
0.0016238176968468338
0.001887747276263011
0.002130978945267964
0.002322792503140381
0.002426901208167448
0.0024060185208228477
0.002229040477508939
0.0018798219815562218
0.0013652091788749654
0.000719129364342741
-0.0
-0.000719129364342741
-0.0013652091788749654
-0.0018798219815562218
-0.002229040477508939
-0.0024060185208228477
-0.002426901208167448
-0.002322792503140381
-0.002130978945267964
-0.001887747276263011
-0.0016238176968468338
0.002040658453933922
0.00239735131342646
0.00273541430071912
0.0030139049590991816
0.003182389930477041
0.003186735710690522
0.0029792241865201274
0.0025318825674508346
0.0018496212567548258
0.0009779115440805737
-0.0
-0.0009779115440805737
-0.0018496212567548258
-0.0025318825674508346
-0.0029792241865201274
-0.003186735710690522
-0.003182389930477041
-0.0030139049590991816
-0.00273541430071912
-0.00239735131342646
-0.002040658453933922
0.0025157762983388397
0.0029864475040376334
0.003444462810399065
0.003836893788118594
0.0040956275366249
0.004144236409355798
0.003911646176322295
0.00335172573376138
0.002464134049171857
0.0013080604840873362
-0.0
-0.0013080604840873362
-0.002464134049171857
-0.00335172573376138
-0.003911646176322295
-0.004144236409355798
-0.0040956275366249
-0.003836893788118594
-0.003444462810399065
-0.0029864475040376334
-0.0025157762983388397
0.0030358520654444085
0.003640351812251172
0.004243186573969388
0.004778232126062383
0.0051564827592887425